variables =  "IG"  "JG"  "PHI"
 ZONE I=         128 J=          128
  1   1    0.4002
  2   1    0.3929
  3   1    0.3937
  4   1    0.4083
  5   1    0.3965
  6   1    0.3997
  7   1    0.3978
  8   1    0.4008
  9   1    0.4089
 10   1    0.4017
 11   1    0.3917
 12   1    0.3903
 13   1    0.3992
 14   1    0.4033
 15   1    0.3984
 16   1    0.3992
 17   1    0.4043
 18   1    0.3981
 19   1    0.3929
 20   1    0.4041
 21   1    0.4024
 22   1    0.3985
 23   1    0.4014
 24   1    0.4022
 25   1    0.4088
 26   1    0.3939
 27   1    0.4093
 28   1    0.4011
 29   1    0.4044
 30   1    0.3961
 31   1    0.3934
 32   1    0.4060
 33   1    0.3911
 34   1    0.4006
 35   1    0.4002
 36   1    0.4043
 37   1    0.4031
 38   1    0.3915
 39   1    0.3905
 40   1    0.4000
 41   1    0.3906
 42   1    0.3967
 43   1    0.3966
 44   1    0.4089
 45   1    0.4092
 46   1    0.4076
 47   1    0.4013
 48   1    0.4085
 49   1    0.3973
 50   1    0.4044
 51   1    0.4038
 52   1    0.3947
 53   1    0.4006
 54   1    0.3940
 55   1    0.4022
 56   1    0.3982
 57   1    0.3911
 58   1    0.4030
 59   1    0.4035
 60   1    0.3996
 61   1    0.4037
 62   1    0.3994
 63   1    0.4092
 64   1    0.3903
 65   1    0.3945
 66   1    0.3942
 67   1    0.3973
 68   1    0.3904
 69   1    0.4013
 70   1    0.4040
 71   1    0.3917
 72   1    0.3957
 73   1    0.3936
 74   1    0.3907
 75   1    0.3950
 76   1    0.3915
 77   1    0.3921
 78   1    0.3931
 79   1    0.3934
 80   1    0.3977
 81   1    0.3940
 82   1    0.3994
 83   1    0.4071
 84   1    0.4026
 85   1    0.3926
 86   1    0.3994
 87   1    0.4063
 88   1    0.3998
 89   1    0.3923
 90   1    0.3952
 91   1    0.3950
 92   1    0.3909
 93   1    0.4052
 94   1    0.4077
 95   1    0.4079
 96   1    0.3962
 97   1    0.3929
 98   1    0.4069
 99   1    0.3961
100   1    0.3919
101   1    0.4092
102   1    0.4084
103   1    0.3907
104   1    0.3917
105   1    0.4099
106   1    0.3976
107   1    0.3913
108   1    0.3983
109   1    0.4080
110   1    0.3907
111   1    0.3956
112   1    0.3974
113   1    0.3977
114   1    0.3951
115   1    0.4024
116   1    0.4052
117   1    0.3917
118   1    0.3900
119   1    0.4008
120   1    0.3910
121   1    0.3935
122   1    0.4075
123   1    0.4071
124   1    0.4056
125   1    0.4030
126   1    0.3990
127   1    0.4049
128   1    0.3984
  1   2    0.3996
  2   2    0.3945
  3   2    0.4064
  4   2    0.3980
  5   2    0.3993
  6   2    0.3956
  7   2    0.4079
  8   2    0.4022
  9   2    0.3932
 10   2    0.3929
 11   2    0.3921
 12   2    0.3992
 13   2    0.4025
 14   2    0.4003
 15   2    0.3985
 16   2    0.4053
 17   2    0.4009
 18   2    0.4007
 19   2    0.4035
 20   2    0.4100
 21   2    0.3936
 22   2    0.4048
 23   2    0.3905
 24   2    0.3913
 25   2    0.3934
 26   2    0.4063
 27   2    0.3986
 28   2    0.3942
 29   2    0.3904
 30   2    0.4014
 31   2    0.3932
 32   2    0.4048
 33   2    0.3929
 34   2    0.3924
 35   2    0.3949
 36   2    0.4047
 37   2    0.3911
 38   2    0.3941
 39   2    0.4061
 40   2    0.3938
 41   2    0.4041
 42   2    0.3998
 43   2    0.3959
 44   2    0.3904
 45   2    0.4073
 46   2    0.4065
 47   2    0.3905
 48   2    0.4057
 49   2    0.4064
 50   2    0.4020
 51   2    0.3991
 52   2    0.4003
 53   2    0.3954
 54   2    0.3971
 55   2    0.4063
 56   2    0.3919
 57   2    0.4083
 58   2    0.4035
 59   2    0.3982
 60   2    0.3921
 61   2    0.3958
 62   2    0.4073
 63   2    0.3911
 64   2    0.4002
 65   2    0.3962
 66   2    0.3924
 67   2    0.3925
 68   2    0.4039
 69   2    0.4067
 70   2    0.3947
 71   2    0.3937
 72   2    0.3977
 73   2    0.4039
 74   2    0.4031
 75   2    0.4040
 76   2    0.4096
 77   2    0.3942
 78   2    0.4077
 79   2    0.3999
 80   2    0.3990
 81   2    0.4085
 82   2    0.4069
 83   2    0.3919
 84   2    0.3991
 85   2    0.4073
 86   2    0.4049
 87   2    0.4042
 88   2    0.4095
 89   2    0.3909
 90   2    0.3977
 91   2    0.4074
 92   2    0.4028
 93   2    0.3938
 94   2    0.4065
 95   2    0.4000
 96   2    0.4074
 97   2    0.4020
 98   2    0.4003
 99   2    0.3991
100   2    0.3900
101   2    0.3908
102   2    0.4088
103   2    0.3900
104   2    0.3952
105   2    0.3984
106   2    0.3943
107   2    0.4076
108   2    0.3978
109   2    0.4062
110   2    0.4080
111   2    0.4081
112   2    0.3924
113   2    0.3904
114   2    0.3936
115   2    0.4046
116   2    0.4031
117   2    0.3913
118   2    0.3902
119   2    0.4075
120   2    0.4031
121   2    0.4096
122   2    0.4014
123   2    0.4091
124   2    0.4085
125   2    0.3964
126   2    0.3931
127   2    0.4028
128   2    0.4053
  1   3    0.4022
  2   3    0.4006
  3   3    0.4001
  4   3    0.3967
  5   3    0.3951
  6   3    0.4081
  7   3    0.3991
  8   3    0.4021
  9   3    0.3919
 10   3    0.3926
 11   3    0.4043
 12   3    0.4079
 13   3    0.3902
 14   3    0.3960
 15   3    0.3981
 16   3    0.4086
 17   3    0.3968
 18   3    0.4098
 19   3    0.4018
 20   3    0.4021
 21   3    0.4077
 22   3    0.3987
 23   3    0.3963
 24   3    0.4024
 25   3    0.4036
 26   3    0.4036
 27   3    0.3935
 28   3    0.4038
 29   3    0.4006
 30   3    0.4048
 31   3    0.3991
 32   3    0.3922
 33   3    0.3903
 34   3    0.4042
 35   3    0.4080
 36   3    0.3988
 37   3    0.3999
 38   3    0.3908
 39   3    0.3998
 40   3    0.4068
 41   3    0.3935
 42   3    0.3966
 43   3    0.3996
 44   3    0.4088
 45   3    0.3932
 46   3    0.3970
 47   3    0.3993
 48   3    0.3957
 49   3    0.4068
 50   3    0.4059
 51   3    0.3991
 52   3    0.4010
 53   3    0.4095
 54   3    0.3908
 55   3    0.4036
 56   3    0.4014
 57   3    0.3930
 58   3    0.3984
 59   3    0.4051
 60   3    0.4089
 61   3    0.3989
 62   3    0.4030
 63   3    0.4003
 64   3    0.4091
 65   3    0.3909
 66   3    0.3928
 67   3    0.4086
 68   3    0.3921
 69   3    0.3910
 70   3    0.4034
 71   3    0.3999
 72   3    0.3992
 73   3    0.3984
 74   3    0.3951
 75   3    0.3928
 76   3    0.4052
 77   3    0.3925
 78   3    0.3971
 79   3    0.4021
 80   3    0.4027
 81   3    0.3971
 82   3    0.3947
 83   3    0.4064
 84   3    0.4028
 85   3    0.4098
 86   3    0.4070
 87   3    0.4084
 88   3    0.3948
 89   3    0.3994
 90   3    0.3924
 91   3    0.3938
 92   3    0.4012
 93   3    0.3943
 94   3    0.3993
 95   3    0.3948
 96   3    0.4073
 97   3    0.4081
 98   3    0.4067
 99   3    0.4077
100   3    0.4091
101   3    0.3965
102   3    0.3939
103   3    0.3972
104   3    0.3972
105   3    0.3989
106   3    0.3980
107   3    0.3936
108   3    0.4089
109   3    0.4015
110   3    0.4068
111   3    0.4086
112   3    0.3958
113   3    0.4059
114   3    0.4025
115   3    0.3905
116   3    0.3906
117   3    0.4040
118   3    0.4038
119   3    0.3973
120   3    0.4075
121   3    0.3937
122   3    0.3984
123   3    0.3941
124   3    0.4098
125   3    0.3998
126   3    0.4013
127   3    0.3932
128   3    0.3973
  1   4    0.4085
  2   4    0.4077
  3   4    0.4014
  4   4    0.4091
  5   4    0.3998
  6   4    0.3986
  7   4    0.3940
  8   4    0.4084
  9   4    0.3953
 10   4    0.3916
 11   4    0.4061
 12   4    0.3994
 13   4    0.3971
 14   4    0.4070
 15   4    0.4099
 16   4    0.4091
 17   4    0.3976
 18   4    0.4005
 19   4    0.4028
 20   4    0.3949
 21   4    0.4093
 22   4    0.4004
 23   4    0.4077
 24   4    0.4084
 25   4    0.3986
 26   4    0.3981
 27   4    0.3948
 28   4    0.4020
 29   4    0.3920
 30   4    0.4018
 31   4    0.3948
 32   4    0.4058
 33   4    0.4015
 34   4    0.3933
 35   4    0.3917
 36   4    0.3977
 37   4    0.4092
 38   4    0.3931
 39   4    0.3934
 40   4    0.3982
 41   4    0.3991
 42   4    0.4026
 43   4    0.3931
 44   4    0.3916
 45   4    0.4081
 46   4    0.4070
 47   4    0.3918
 48   4    0.3936
 49   4    0.3964
 50   4    0.4078
 51   4    0.4040
 52   4    0.3979
 53   4    0.4095
 54   4    0.4043
 55   4    0.3901
 56   4    0.3992
 57   4    0.4014
 58   4    0.4020
 59   4    0.4087
 60   4    0.4050
 61   4    0.4053
 62   4    0.4021
 63   4    0.3969
 64   4    0.4069
 65   4    0.3901
 66   4    0.3937
 67   4    0.4010
 68   4    0.4043
 69   4    0.4055
 70   4    0.4068
 71   4    0.4051
 72   4    0.4009
 73   4    0.4076
 74   4    0.3996
 75   4    0.4046
 76   4    0.3989
 77   4    0.3939
 78   4    0.3944
 79   4    0.3937
 80   4    0.4061
 81   4    0.3909
 82   4    0.3929
 83   4    0.3938
 84   4    0.4093
 85   4    0.3955
 86   4    0.3961
 87   4    0.4047
 88   4    0.3913
 89   4    0.3964
 90   4    0.4012
 91   4    0.4087
 92   4    0.4063
 93   4    0.3958
 94   4    0.3994
 95   4    0.3954
 96   4    0.3929
 97   4    0.4000
 98   4    0.3964
 99   4    0.3963
100   4    0.4027
101   4    0.4039
102   4    0.3936
103   4    0.3917
104   4    0.4044
105   4    0.3988
106   4    0.4051
107   4    0.4091
108   4    0.4078
109   4    0.4041
110   4    0.4044
111   4    0.4079
112   4    0.3984
113   4    0.3980
114   4    0.4084
115   4    0.4022
116   4    0.4098
117   4    0.3933
118   4    0.4100
119   4    0.3955
120   4    0.3905
121   4    0.4078
122   4    0.3905
123   4    0.4032
124   4    0.3989
125   4    0.4024
126   4    0.4013
127   4    0.3952
128   4    0.3906
  1   5    0.3995
  2   5    0.3919
  3   5    0.4061
  4   5    0.4040
  5   5    0.4010
  6   5    0.3975
  7   5    0.4069
  8   5    0.4041
  9   5    0.4060
 10   5    0.4066
 11   5    0.4091
 12   5    0.3956
 13   5    0.4033
 14   5    0.3915
 15   5    0.4030
 16   5    0.4032
 17   5    0.4015
 18   5    0.3924
 19   5    0.4037
 20   5    0.3901
 21   5    0.4036
 22   5    0.3991
 23   5    0.3946
 24   5    0.4028
 25   5    0.4071
 26   5    0.4006
 27   5    0.3969
 28   5    0.3912
 29   5    0.4056
 30   5    0.4037
 31   5    0.4023
 32   5    0.4085
 33   5    0.3985
 34   5    0.3904
 35   5    0.4089
 36   5    0.4087
 37   5    0.3968
 38   5    0.3985
 39   5    0.3998
 40   5    0.4066
 41   5    0.3919
 42   5    0.3924
 43   5    0.3987
 44   5    0.3979
 45   5    0.4008
 46   5    0.3980
 47   5    0.4083
 48   5    0.3937
 49   5    0.4010
 50   5    0.3916
 51   5    0.4059
 52   5    0.4000
 53   5    0.4068
 54   5    0.4089
 55   5    0.3914
 56   5    0.4012
 57   5    0.4010
 58   5    0.4015
 59   5    0.4012
 60   5    0.3941
 61   5    0.4029
 62   5    0.3990
 63   5    0.3948
 64   5    0.4070
 65   5    0.4048
 66   5    0.3970
 67   5    0.4046
 68   5    0.4079
 69   5    0.3973
 70   5    0.3990
 71   5    0.4003
 72   5    0.4028
 73   5    0.4052
 74   5    0.3953
 75   5    0.4041
 76   5    0.3933
 77   5    0.3916
 78   5    0.4023
 79   5    0.3982
 80   5    0.4094
 81   5    0.3902
 82   5    0.3999
 83   5    0.3985
 84   5    0.3968
 85   5    0.3989
 86   5    0.4030
 87   5    0.3970
 88   5    0.4097
 89   5    0.4040
 90   5    0.4048
 91   5    0.3975
 92   5    0.4011
 93   5    0.3958
 94   5    0.4089
 95   5    0.4047
 96   5    0.3974
 97   5    0.3926
 98   5    0.3983
 99   5    0.4090
100   5    0.3982
101   5    0.3914
102   5    0.3931
103   5    0.4044
104   5    0.4024
105   5    0.4077
106   5    0.4036
107   5    0.3973
108   5    0.3995
109   5    0.3967
110   5    0.4048
111   5    0.4018
112   5    0.3976
113   5    0.4043
114   5    0.3913
115   5    0.3915
116   5    0.3938
117   5    0.3908
118   5    0.4003
119   5    0.3946
120   5    0.3901
121   5    0.3991
122   5    0.4036
123   5    0.4063
124   5    0.4078
125   5    0.3926
126   5    0.3958
127   5    0.4081
128   5    0.3958
  1   6    0.4028
  2   6    0.4014
  3   6    0.3940
  4   6    0.3944
  5   6    0.3988
  6   6    0.3973
  7   6    0.3925
  8   6    0.3993
  9   6    0.4053
 10   6    0.4058
 11   6    0.3997
 12   6    0.4068
 13   6    0.3995
 14   6    0.3969
 15   6    0.3984
 16   6    0.3947
 17   6    0.3934
 18   6    0.4008
 19   6    0.3964
 20   6    0.3904
 21   6    0.4038
 22   6    0.4085
 23   6    0.4051
 24   6    0.4015
 25   6    0.3965
 26   6    0.4007
 27   6    0.3922
 28   6    0.4007
 29   6    0.3996
 30   6    0.4077
 31   6    0.4059
 32   6    0.3903
 33   6    0.4054
 34   6    0.4050
 35   6    0.4021
 36   6    0.4030
 37   6    0.4082
 38   6    0.3903
 39   6    0.4007
 40   6    0.4079
 41   6    0.3972
 42   6    0.3985
 43   6    0.4090
 44   6    0.3996
 45   6    0.3980
 46   6    0.3925
 47   6    0.4084
 48   6    0.4057
 49   6    0.4000
 50   6    0.4019
 51   6    0.4086
 52   6    0.3954
 53   6    0.4019
 54   6    0.3982
 55   6    0.3938
 56   6    0.4079
 57   6    0.3973
 58   6    0.4052
 59   6    0.3991
 60   6    0.3920
 61   6    0.3996
 62   6    0.4082
 63   6    0.3939
 64   6    0.3967
 65   6    0.4081
 66   6    0.3927
 67   6    0.4066
 68   6    0.3916
 69   6    0.3920
 70   6    0.4069
 71   6    0.4000
 72   6    0.3976
 73   6    0.4013
 74   6    0.3929
 75   6    0.4073
 76   6    0.3958
 77   6    0.3972
 78   6    0.4002
 79   6    0.4091
 80   6    0.3915
 81   6    0.3962
 82   6    0.3911
 83   6    0.3919
 84   6    0.3945
 85   6    0.4047
 86   6    0.4091
 87   6    0.3922
 88   6    0.4021
 89   6    0.4048
 90   6    0.3919
 91   6    0.4089
 92   6    0.4090
 93   6    0.4071
 94   6    0.3974
 95   6    0.4012
 96   6    0.3959
 97   6    0.3937
 98   6    0.4002
 99   6    0.3984
100   6    0.4008
101   6    0.4017
102   6    0.4039
103   6    0.3984
104   6    0.3931
105   6    0.3948
106   6    0.4016
107   6    0.4036
108   6    0.3970
109   6    0.4009
110   6    0.4051
111   6    0.4069
112   6    0.4036
113   6    0.3979
114   6    0.3967
115   6    0.3942
116   6    0.4006
117   6    0.4049
118   6    0.3971
119   6    0.3983
120   6    0.4018
121   6    0.4092
122   6    0.4068
123   6    0.3977
124   6    0.4037
125   6    0.4040
126   6    0.3956
127   6    0.3994
128   6    0.3965
  1   7    0.3984
  2   7    0.3915
  3   7    0.4040
  4   7    0.4056
  5   7    0.3989
  6   7    0.4063
  7   7    0.3994
  8   7    0.3932
  9   7    0.3984
 10   7    0.4018
 11   7    0.3994
 12   7    0.3976
 13   7    0.3986
 14   7    0.3952
 15   7    0.3987
 16   7    0.3961
 17   7    0.4018
 18   7    0.4075
 19   7    0.4067
 20   7    0.4016
 21   7    0.3993
 22   7    0.3908
 23   7    0.4073
 24   7    0.4062
 25   7    0.4051
 26   7    0.4070
 27   7    0.4060
 28   7    0.3992
 29   7    0.3934
 30   7    0.3973
 31   7    0.3952
 32   7    0.3934
 33   7    0.4033
 34   7    0.3914
 35   7    0.4008
 36   7    0.4073
 37   7    0.3945
 38   7    0.4035
 39   7    0.4082
 40   7    0.3958
 41   7    0.3948
 42   7    0.3939
 43   7    0.4057
 44   7    0.4052
 45   7    0.4037
 46   7    0.4015
 47   7    0.4002
 48   7    0.4022
 49   7    0.4076
 50   7    0.4059
 51   7    0.3979
 52   7    0.4082
 53   7    0.4013
 54   7    0.4013
 55   7    0.4000
 56   7    0.4082
 57   7    0.3916
 58   7    0.4016
 59   7    0.4095
 60   7    0.4006
 61   7    0.3946
 62   7    0.4009
 63   7    0.3913
 64   7    0.3928
 65   7    0.4012
 66   7    0.3972
 67   7    0.4032
 68   7    0.4045
 69   7    0.3980
 70   7    0.4082
 71   7    0.4094
 72   7    0.3928
 73   7    0.3902
 74   7    0.3914
 75   7    0.4008
 76   7    0.4023
 77   7    0.4072
 78   7    0.3998
 79   7    0.4024
 80   7    0.3906
 81   7    0.4064
 82   7    0.3929
 83   7    0.4067
 84   7    0.4061
 85   7    0.3914
 86   7    0.3960
 87   7    0.3955
 88   7    0.4003
 89   7    0.3956
 90   7    0.3909
 91   7    0.4075
 92   7    0.4006
 93   7    0.4081
 94   7    0.4084
 95   7    0.4078
 96   7    0.4005
 97   7    0.3925
 98   7    0.4045
 99   7    0.4077
100   7    0.3971
101   7    0.3963
102   7    0.4092
103   7    0.4041
104   7    0.4096
105   7    0.4082
106   7    0.4009
107   7    0.3944
108   7    0.3935
109   7    0.4030
110   7    0.4053
111   7    0.3950
112   7    0.4073
113   7    0.4084
114   7    0.4090
115   7    0.3956
116   7    0.3956
117   7    0.4044
118   7    0.4068
119   7    0.3914
120   7    0.3951
121   7    0.4063
122   7    0.4081
123   7    0.3918
124   7    0.4064
125   7    0.4055
126   7    0.3958
127   7    0.3954
128   7    0.3977
  1   8    0.3959
  2   8    0.4086
  3   8    0.3903
  4   8    0.3926
  5   8    0.4068
  6   8    0.4090
  7   8    0.4074
  8   8    0.3904
  9   8    0.4031
 10   8    0.3992
 11   8    0.4061
 12   8    0.3978
 13   8    0.4003
 14   8    0.3931
 15   8    0.4079
 16   8    0.3984
 17   8    0.4075
 18   8    0.3920
 19   8    0.3986
 20   8    0.4064
 21   8    0.3925
 22   8    0.3999
 23   8    0.3995
 24   8    0.4042
 25   8    0.3972
 26   8    0.3948
 27   8    0.4072
 28   8    0.3942
 29   8    0.3970
 30   8    0.4039
 31   8    0.4025
 32   8    0.3909
 33   8    0.3942
 34   8    0.3942
 35   8    0.4029
 36   8    0.3962
 37   8    0.3960
 38   8    0.4048
 39   8    0.3988
 40   8    0.4066
 41   8    0.3981
 42   8    0.4016
 43   8    0.3992
 44   8    0.3993
 45   8    0.4063
 46   8    0.3956
 47   8    0.3972
 48   8    0.3932
 49   8    0.3936
 50   8    0.3979
 51   8    0.4036
 52   8    0.4071
 53   8    0.4011
 54   8    0.4014
 55   8    0.4057
 56   8    0.3992
 57   8    0.4069
 58   8    0.4092
 59   8    0.3960
 60   8    0.4042
 61   8    0.3927
 62   8    0.3939
 63   8    0.4083
 64   8    0.4078
 65   8    0.4044
 66   8    0.4000
 67   8    0.3956
 68   8    0.4011
 69   8    0.3985
 70   8    0.4055
 71   8    0.3936
 72   8    0.3926
 73   8    0.3995
 74   8    0.3904
 75   8    0.4000
 76   8    0.3911
 77   8    0.3960
 78   8    0.4045
 79   8    0.3942
 80   8    0.4087
 81   8    0.3909
 82   8    0.4058
 83   8    0.4019
 84   8    0.3962
 85   8    0.4083
 86   8    0.4072
 87   8    0.4016
 88   8    0.3977
 89   8    0.4023
 90   8    0.4074
 91   8    0.4042
 92   8    0.4030
 93   8    0.3917
 94   8    0.3994
 95   8    0.3959
 96   8    0.3934
 97   8    0.4044
 98   8    0.3955
 99   8    0.3975
100   8    0.4036
101   8    0.4082
102   8    0.3990
103   8    0.3973
104   8    0.3930
105   8    0.4047
106   8    0.3989
107   8    0.4096
108   8    0.3914
109   8    0.3929
110   8    0.4082
111   8    0.3916
112   8    0.3977
113   8    0.3987
114   8    0.3944
115   8    0.3946
116   8    0.3987
117   8    0.3940
118   8    0.4073
119   8    0.3912
120   8    0.3991
121   8    0.3931
122   8    0.4067
123   8    0.4016
124   8    0.4053
125   8    0.3958
126   8    0.4084
127   8    0.4041
128   8    0.4027
  1   9    0.3969
  2   9    0.4068
  3   9    0.3921
  4   9    0.4018
  5   9    0.4067
  6   9    0.3969
  7   9    0.3959
  8   9    0.4002
  9   9    0.4086
 10   9    0.4098
 11   9    0.3925
 12   9    0.3958
 13   9    0.3922
 14   9    0.4079
 15   9    0.3920
 16   9    0.4019
 17   9    0.3988
 18   9    0.4057
 19   9    0.3980
 20   9    0.3995
 21   9    0.4083
 22   9    0.3912
 23   9    0.4002
 24   9    0.3905
 25   9    0.3938
 26   9    0.4077
 27   9    0.3911
 28   9    0.3903
 29   9    0.3991
 30   9    0.3944
 31   9    0.3949
 32   9    0.4059
 33   9    0.3909
 34   9    0.3910
 35   9    0.3964
 36   9    0.3904
 37   9    0.3965
 38   9    0.3930
 39   9    0.4030
 40   9    0.4068
 41   9    0.4022
 42   9    0.4078
 43   9    0.3953
 44   9    0.3922
 45   9    0.3915
 46   9    0.3948
 47   9    0.3998
 48   9    0.3992
 49   9    0.3925
 50   9    0.3948
 51   9    0.3933
 52   9    0.4048
 53   9    0.4076
 54   9    0.4036
 55   9    0.3941
 56   9    0.3909
 57   9    0.3969
 58   9    0.3984
 59   9    0.3964
 60   9    0.4047
 61   9    0.3924
 62   9    0.3918
 63   9    0.4031
 64   9    0.3906
 65   9    0.3997
 66   9    0.3997
 67   9    0.4066
 68   9    0.3960
 69   9    0.4067
 70   9    0.4064
 71   9    0.3985
 72   9    0.4039
 73   9    0.3962
 74   9    0.3948
 75   9    0.4094
 76   9    0.3981
 77   9    0.3994
 78   9    0.4016
 79   9    0.3991
 80   9    0.3962
 81   9    0.3960
 82   9    0.3939
 83   9    0.4075
 84   9    0.4016
 85   9    0.3976
 86   9    0.4018
 87   9    0.3927
 88   9    0.3907
 89   9    0.4086
 90   9    0.4008
 91   9    0.4012
 92   9    0.4039
 93   9    0.3950
 94   9    0.4065
 95   9    0.3991
 96   9    0.3985
 97   9    0.4018
 98   9    0.3915
 99   9    0.4080
100   9    0.4084
101   9    0.3985
102   9    0.4045
103   9    0.4064
104   9    0.4073
105   9    0.3936
106   9    0.4075
107   9    0.4012
108   9    0.4089
109   9    0.4006
110   9    0.3958
111   9    0.3992
112   9    0.4082
113   9    0.4075
114   9    0.3910
115   9    0.3979
116   9    0.3921
117   9    0.4028
118   9    0.3915
119   9    0.3972
120   9    0.3968
121   9    0.3964
122   9    0.3980
123   9    0.3989
124   9    0.4086
125   9    0.4017
126   9    0.3947
127   9    0.3907
128   9    0.3939
  1  10    0.4060
  2  10    0.3968
  3  10    0.4081
  4  10    0.3985
  5  10    0.3940
  6  10    0.4039
  7  10    0.4061
  8  10    0.4055
  9  10    0.4010
 10  10    0.4093
 11  10    0.3934
 12  10    0.3931
 13  10    0.3903
 14  10    0.3929
 15  10    0.4040
 16  10    0.3942
 17  10    0.4017
 18  10    0.4094
 19  10    0.4008
 20  10    0.4006
 21  10    0.3954
 22  10    0.3914
 23  10    0.3914
 24  10    0.4092
 25  10    0.3902
 26  10    0.4083
 27  10    0.3921
 28  10    0.3921
 29  10    0.3939
 30  10    0.3972
 31  10    0.4039
 32  10    0.4013
 33  10    0.3965
 34  10    0.4063
 35  10    0.3963
 36  10    0.3907
 37  10    0.3979
 38  10    0.4039
 39  10    0.4078
 40  10    0.3956
 41  10    0.4031
 42  10    0.4040
 43  10    0.3919
 44  10    0.3978
 45  10    0.4046
 46  10    0.4009
 47  10    0.4045
 48  10    0.4060
 49  10    0.3983
 50  10    0.4078
 51  10    0.3962
 52  10    0.3984
 53  10    0.3932
 54  10    0.4056
 55  10    0.4022
 56  10    0.3991
 57  10    0.4067
 58  10    0.4030
 59  10    0.3951
 60  10    0.4018
 61  10    0.4041
 62  10    0.4062
 63  10    0.3982
 64  10    0.3919
 65  10    0.4098
 66  10    0.4013
 67  10    0.3909
 68  10    0.3992
 69  10    0.4060
 70  10    0.3958
 71  10    0.3925
 72  10    0.4045
 73  10    0.3954
 74  10    0.4020
 75  10    0.3983
 76  10    0.4094
 77  10    0.4094
 78  10    0.3966
 79  10    0.4070
 80  10    0.3908
 81  10    0.3997
 82  10    0.4016
 83  10    0.3976
 84  10    0.3981
 85  10    0.3966
 86  10    0.3927
 87  10    0.4093
 88  10    0.3970
 89  10    0.3911
 90  10    0.4063
 91  10    0.3973
 92  10    0.3912
 93  10    0.4092
 94  10    0.3951
 95  10    0.3950
 96  10    0.4060
 97  10    0.3940
 98  10    0.4075
 99  10    0.4008
100  10    0.3981
101  10    0.3983
102  10    0.3959
103  10    0.4081
104  10    0.3982
105  10    0.3979
106  10    0.3923
107  10    0.4068
108  10    0.4062
109  10    0.4056
110  10    0.3930
111  10    0.3998
112  10    0.3907
113  10    0.3930
114  10    0.4028
115  10    0.3952
116  10    0.3986
117  10    0.4056
118  10    0.3954
119  10    0.3956
120  10    0.3944
121  10    0.4075
122  10    0.4073
123  10    0.4068
124  10    0.3948
125  10    0.3963
126  10    0.4017
127  10    0.3986
128  10    0.3926
  1  11    0.4061
  2  11    0.4092
  3  11    0.4051
  4  11    0.3952
  5  11    0.3948
  6  11    0.4030
  7  11    0.3996
  8  11    0.3906
  9  11    0.3945
 10  11    0.4068
 11  11    0.3960
 12  11    0.4004
 13  11    0.4062
 14  11    0.4093
 15  11    0.3982
 16  11    0.3957
 17  11    0.4033
 18  11    0.4044
 19  11    0.3996
 20  11    0.3996
 21  11    0.4086
 22  11    0.3955
 23  11    0.3952
 24  11    0.3936
 25  11    0.3975
 26  11    0.4012
 27  11    0.3976
 28  11    0.4026
 29  11    0.3956
 30  11    0.3955
 31  11    0.4039
 32  11    0.4034
 33  11    0.4091
 34  11    0.3970
 35  11    0.3940
 36  11    0.4065
 37  11    0.4074
 38  11    0.3932
 39  11    0.3991
 40  11    0.4063
 41  11    0.3913
 42  11    0.4077
 43  11    0.4061
 44  11    0.3903
 45  11    0.4050
 46  11    0.4090
 47  11    0.3920
 48  11    0.4073
 49  11    0.3917
 50  11    0.3924
 51  11    0.4067
 52  11    0.3936
 53  11    0.3903
 54  11    0.4018
 55  11    0.4005
 56  11    0.4011
 57  11    0.4068
 58  11    0.3910
 59  11    0.4070
 60  11    0.4018
 61  11    0.4017
 62  11    0.3937
 63  11    0.4018
 64  11    0.3960
 65  11    0.4050
 66  11    0.4038
 67  11    0.4020
 68  11    0.3946
 69  11    0.3928
 70  11    0.3902
 71  11    0.4036
 72  11    0.3999
 73  11    0.3962
 74  11    0.3912
 75  11    0.3960
 76  11    0.3980
 77  11    0.3924
 78  11    0.3922
 79  11    0.4063
 80  11    0.4097
 81  11    0.4091
 82  11    0.3938
 83  11    0.4036
 84  11    0.3998
 85  11    0.3901
 86  11    0.4063
 87  11    0.3920
 88  11    0.3958
 89  11    0.3916
 90  11    0.4079
 91  11    0.3951
 92  11    0.3960
 93  11    0.4046
 94  11    0.4080
 95  11    0.4098
 96  11    0.3981
 97  11    0.4057
 98  11    0.4026
 99  11    0.3945
100  11    0.3935
101  11    0.3929
102  11    0.3997
103  11    0.4022
104  11    0.3923
105  11    0.4091
106  11    0.3991
107  11    0.4086
108  11    0.3934
109  11    0.3901
110  11    0.4023
111  11    0.4068
112  11    0.4043
113  11    0.3940
114  11    0.4078
115  11    0.3955
116  11    0.3914
117  11    0.4014
118  11    0.3951
119  11    0.4076
120  11    0.3923
121  11    0.4064
122  11    0.3998
123  11    0.4023
124  11    0.4033
125  11    0.4056
126  11    0.3939
127  11    0.4008
128  11    0.4023
  1  12    0.4024
  2  12    0.4089
  3  12    0.3937
  4  12    0.3900
  5  12    0.4000
  6  12    0.3902
  7  12    0.3926
  8  12    0.3909
  9  12    0.4030
 10  12    0.3941
 11  12    0.4069
 12  12    0.4006
 13  12    0.3946
 14  12    0.4013
 15  12    0.4048
 16  12    0.3987
 17  12    0.4022
 18  12    0.3984
 19  12    0.4048
 20  12    0.3907
 21  12    0.3965
 22  12    0.3941
 23  12    0.3931
 24  12    0.4026
 25  12    0.4059
 26  12    0.3918
 27  12    0.3986
 28  12    0.4017
 29  12    0.4063
 30  12    0.4012
 31  12    0.3943
 32  12    0.3917
 33  12    0.3988
 34  12    0.4068
 35  12    0.4089
 36  12    0.3928
 37  12    0.3926
 38  12    0.4096
 39  12    0.3943
 40  12    0.3916
 41  12    0.3944
 42  12    0.3987
 43  12    0.4089
 44  12    0.4015
 45  12    0.4032
 46  12    0.4087
 47  12    0.4057
 48  12    0.3924
 49  12    0.3992
 50  12    0.4020
 51  12    0.4093
 52  12    0.3953
 53  12    0.4097
 54  12    0.4074
 55  12    0.3982
 56  12    0.4012
 57  12    0.4060
 58  12    0.4090
 59  12    0.4068
 60  12    0.4052
 61  12    0.3943
 62  12    0.3969
 63  12    0.3943
 64  12    0.4018
 65  12    0.3989
 66  12    0.3972
 67  12    0.3935
 68  12    0.4020
 69  12    0.4078
 70  12    0.3918
 71  12    0.3920
 72  12    0.3936
 73  12    0.3950
 74  12    0.3920
 75  12    0.4053
 76  12    0.3907
 77  12    0.4035
 78  12    0.3934
 79  12    0.4015
 80  12    0.3925
 81  12    0.3908
 82  12    0.4008
 83  12    0.4040
 84  12    0.4092
 85  12    0.4067
 86  12    0.4076
 87  12    0.4085
 88  12    0.3928
 89  12    0.4085
 90  12    0.4027
 91  12    0.3944
 92  12    0.4060
 93  12    0.4021
 94  12    0.3966
 95  12    0.3903
 96  12    0.4070
 97  12    0.3905
 98  12    0.4010
 99  12    0.3906
100  12    0.3925
101  12    0.3951
102  12    0.4017
103  12    0.4082
104  12    0.4037
105  12    0.3998
106  12    0.4084
107  12    0.3986
108  12    0.3990
109  12    0.3977
110  12    0.3975
111  12    0.3957
112  12    0.4009
113  12    0.3954
114  12    0.3981
115  12    0.4064
116  12    0.4073
117  12    0.4097
118  12    0.4036
119  12    0.3935
120  12    0.3990
121  12    0.4006
122  12    0.3995
123  12    0.4067
124  12    0.4092
125  12    0.4074
126  12    0.3928
127  12    0.4008
128  12    0.3934
  1  13    0.3962
  2  13    0.4053
  3  13    0.4071
  4  13    0.4003
  5  13    0.3950
  6  13    0.3988
  7  13    0.4065
  8  13    0.3945
  9  13    0.3932
 10  13    0.3956
 11  13    0.4003
 12  13    0.3918
 13  13    0.4036
 14  13    0.3957
 15  13    0.4070
 16  13    0.3996
 17  13    0.4030
 18  13    0.3977
 19  13    0.4025
 20  13    0.4048
 21  13    0.4044
 22  13    0.3955
 23  13    0.4040
 24  13    0.3919
 25  13    0.3932
 26  13    0.4068
 27  13    0.3906
 28  13    0.3968
 29  13    0.3963
 30  13    0.3939
 31  13    0.3911
 32  13    0.4048
 33  13    0.3946
 34  13    0.3935
 35  13    0.4054
 36  13    0.4082
 37  13    0.4055
 38  13    0.4013
 39  13    0.4076
 40  13    0.3995
 41  13    0.4053
 42  13    0.3983
 43  13    0.3933
 44  13    0.3946
 45  13    0.3924
 46  13    0.3918
 47  13    0.4080
 48  13    0.3948
 49  13    0.3935
 50  13    0.3988
 51  13    0.4085
 52  13    0.3970
 53  13    0.3938
 54  13    0.3904
 55  13    0.3949
 56  13    0.4084
 57  13    0.4061
 58  13    0.4067
 59  13    0.4060
 60  13    0.3944
 61  13    0.4042
 62  13    0.3936
 63  13    0.3919
 64  13    0.3954
 65  13    0.4018
 66  13    0.4008
 67  13    0.3926
 68  13    0.3903
 69  13    0.3957
 70  13    0.3939
 71  13    0.3915
 72  13    0.3918
 73  13    0.3990
 74  13    0.4059
 75  13    0.4011
 76  13    0.3956
 77  13    0.4007
 78  13    0.3990
 79  13    0.3965
 80  13    0.4038
 81  13    0.3903
 82  13    0.4041
 83  13    0.4081
 84  13    0.4015
 85  13    0.4065
 86  13    0.4068
 87  13    0.3923
 88  13    0.3970
 89  13    0.3953
 90  13    0.3930
 91  13    0.3963
 92  13    0.4021
 93  13    0.3923
 94  13    0.3936
 95  13    0.3994
 96  13    0.4100
 97  13    0.4014
 98  13    0.3979
 99  13    0.4026
100  13    0.3943
101  13    0.3974
102  13    0.3982
103  13    0.3981
104  13    0.4086
105  13    0.3963
106  13    0.3924
107  13    0.3936
108  13    0.4054
109  13    0.4060
110  13    0.3981
111  13    0.4086
112  13    0.3951
113  13    0.3908
114  13    0.4045
115  13    0.4030
116  13    0.3953
117  13    0.3975
118  13    0.3942
119  13    0.4084
120  13    0.4003
121  13    0.4052
122  13    0.4030
123  13    0.4055
124  13    0.3936
125  13    0.4096
126  13    0.4087