variables =  "IG"  "JG"  "PHI"
 ZONE I=         128 J=          128
  1   1    0.9798
  2   1    0.9746
  3   1    0.9576
  4   1    0.9076
  5   1    0.8016
  6   1    0.6509
  7   1    0.4875
  8   1    0.3456
  9   1    0.2454
 10   1    0.1903
 11   1    0.1758
 12   1    0.1999
 13   1    0.2661
 14   1    0.3794
 15   1    0.5330
 16   1    0.7025
 17   1    0.8471
 18   1    0.9363
 19   1    0.9704
 20   1    0.9807
 21   1    0.9837
 22   1    0.9843
 23   1    0.9840
 24   1    0.9827
 25   1    0.9768
 26   1    0.9567
 27   1    0.8949
 28   1    0.7694
 29   1    0.6017
 30   1    0.4325
 31   1    0.2937
 32   1    0.1986
 33   1    0.1410
 34   1    0.1096
 35   1    0.0942
 36   1    0.0872
 37   1    0.0843
 38   1    0.0833
 39   1    0.0830
 40   1    0.0830
 41   1    0.0832
 42   1    0.0837
 43   1    0.0847
 44   1    0.0869
 45   1    0.0913
 46   1    0.0995
 47   1    0.1137
 48   1    0.1366
 49   1    0.1698
 50   1    0.2137
 51   1    0.2667
 52   1    0.3247
 53   1    0.3812
 54   1    0.4285
 55   1    0.4609
 56   1    0.4744
 57   1    0.4675
 58   1    0.4409
 59   1    0.3978
 60   1    0.3437
 61   1    0.2861
 62   1    0.2325
 63   1    0.1884
 64   1    0.1567
 65   1    0.1384
 66   1    0.1341
 67   1    0.1445
 68   1    0.1717
 69   1    0.2181
 70   1    0.2853
 71   1    0.3714
 72   1    0.4687
 73   1    0.5664
 74   1    0.6546
 75   1    0.7255
 76   1    0.7757
 77   1    0.8063
 78   1    0.8190
 79   1    0.8148
 80   1    0.7932
 81   1    0.7522
 82   1    0.6900
 83   1    0.6076
 84   1    0.5111
 85   1    0.4101
 86   1    0.3154
 87   1    0.2367
 88   1    0.1777
 89   1    0.1373
 90   1    0.1122
 91   1    0.0985
 92   1    0.0925
 93   1    0.0922
 94   1    0.0981
 95   1    0.1134
 96   1    0.1446
 97   1    0.2009
 98   1    0.2921
 99   1    0.4236
100   1    0.5835
101   1    0.7448
102   1    0.8716
103   1    0.9434
104   1    0.9708
105   1    0.9797
106   1    0.9826
107   1    0.9830
108   1    0.9816
109   1    0.9759
110   1    0.9574
111   1    0.9026
112   1    0.7894
113   1    0.6339
114   1    0.4711
115   1    0.3339
116   1    0.2389
117   1    0.1866
118   1    0.1710
119   1    0.1902
120   1    0.2481
121   1    0.3517
122   1    0.4987
123   1    0.6684
124   1    0.8217
125   1    0.9233
126   1    0.9653
127   1    0.9777
128   1    0.9806
  1   2    0.9765
  2   2    0.9669
  3   2    0.9379
  4   2    0.8654
  5   2    0.7418
  6   2    0.5859
  7   2    0.4312
  8   2    0.3046
  9   2    0.2202
 10   2    0.1771
 11   2    0.1710
 12   2    0.2016
 13   2    0.2742
 14   2    0.3944
 15   2    0.5537
 16   2    0.7253
 17   2    0.8662
 18   2    0.9462
 19   2    0.9743
 20   2    0.9821
 21   2    0.9843
 22   2    0.9848
 23   2    0.9845
 24   2    0.9831
 25   2    0.9783
 26   2    0.9605
 27   2    0.9033
 28   2    0.7806
 29   2    0.6122
 30   2    0.4399
 31   2    0.2976
 32   2    0.1997
 33   2    0.1403
 34   2    0.1080
 35   2    0.0922
 36   2    0.0849
 37   2    0.0817
 38   2    0.0804
 39   2    0.0800
 40   2    0.0800
 41   2    0.0804
 42   2    0.0813
 43   2    0.0832
 44   2    0.0871
 45   2    0.0947
 46   2    0.1086
 47   2    0.1323
 48   2    0.1694
 49   2    0.2220
 50   2    0.2901
 51   2    0.3701
 52   2    0.4534
 53   2    0.5297
 54   2    0.5908
 55   2    0.6310
 56   2    0.6473
 57   2    0.6387
 58   2    0.6055
 59   2    0.5499
 60   2    0.4769
 61   2    0.3947
 62   2    0.3137
 63   2    0.2439
 64   2    0.1909
 65   2    0.1557
 66   2    0.1374
 67   2    0.1344
 68   2    0.1463
 69   2    0.1733
 70   2    0.2161
 71   2    0.2741
 72   2    0.3447
 73   2    0.4214
 74   2    0.4959
 75   2    0.5612
 76   2    0.6122
 77   2    0.6457
 78   2    0.6604
 79   2    0.6558
 80   2    0.6318
 81   2    0.5888
 82   2    0.5290
 83   2    0.4565
 84   2    0.3777
 85   2    0.3009
 86   2    0.2339
 87   2    0.1807
 88   2    0.1418
 89   2    0.1159
 90   2    0.1004
 91   2    0.0921
 92   2    0.0887
 93   2    0.0893
 94   2    0.0947
 95   2    0.1075
 96   2    0.1336
 97   2    0.1808
 98   2    0.2580
 99   2    0.3717
100   2    0.5160
101   2    0.6713
102   2    0.8072
103   2    0.9018
104   2    0.9497
105   2    0.9685
106   2    0.9753
107   2    0.9766
108   2    0.9734
109   2    0.9622
110   2    0.9305
111   2    0.8558
112   2    0.7331
113   2    0.5802
114   2    0.4297
115   2    0.3067
116   2    0.2235
117   2    0.1785
118   2    0.1665
119   2    0.1863
120   2    0.2421
121   2    0.3410
122   2    0.4821
123   2    0.6469
124   2    0.8008
125   2    0.9090
126   2    0.9589
127   2    0.9749
128   2    0.9786
  1   3    0.9652
  2   3    0.9461
  3   3    0.8960
  4   3    0.7996
  5   3    0.6638
  6   3    0.5112
  7   3    0.3711
  8   3    0.2634
  9   3    0.1951
 10   3    0.1629
 11   3    0.1633
 12   3    0.1974
 13   3    0.2715
 14   3    0.3921
 15   3    0.5512
 16   3    0.7226
 17   3    0.8638
 18   3    0.9449
 19   3    0.9738
 20   3    0.9819
 21   3    0.9841
 22   3    0.9845
 23   3    0.9842
 24   3    0.9827
 25   3    0.9772
 26   3    0.9575
 27   3    0.8963
 28   3    0.7705
 29   3    0.6015
 30   3    0.4309
 31   3    0.2910
 32   3    0.1953
 33   3    0.1375
 34   3    0.1061
 35   3    0.0907
 36   3    0.0836
 37   3    0.0804
 38   3    0.0791
 39   3    0.0786
 40   3    0.0787
 41   3    0.0792
 42   3    0.0806
 43   3    0.0836
 44   3    0.0896
 45   3    0.1014
 46   3    0.1230
 47   3    0.1594
 48   3    0.2150
 49   3    0.2921
 50   3    0.3890
 51   3    0.4957
 52   3    0.5994
 53   3    0.6882
 54   3    0.7534
 55   3    0.7929
 56   3    0.8081
 57   3    0.7999
 58   3    0.7673
 59   3    0.7086
 60   3    0.6243
 61   3    0.5221
 62   3    0.4146
 63   3    0.3155
 64   3    0.2363
 65   3    0.1806
 66   3    0.1466
 67   3    0.1307
 68   3    0.1297
 69   3    0.1416
 70   3    0.1656
 71   3    0.2010
 72   3    0.2461
 73   3    0.2981
 74   3    0.3522
 75   3    0.4027
 76   3    0.4442
 77   3    0.4727
 78   3    0.4858
 79   3    0.4822
 80   3    0.4620
 81   3    0.4267
 82   3    0.3794
 83   3    0.3248
 84   3    0.2691
 85   3    0.2177
 86   3    0.1744
 87   3    0.1408
 88   3    0.1169
 89   3    0.1015
 90   3    0.0924
 91   3    0.0876
 92   3    0.0860
 93   3    0.0870
 94   3    0.0914
 95   3    0.1015
 96   3    0.1219
 97   3    0.1590
 98   3    0.2204
 99   3    0.3124
100   3    0.4349
101   3    0.5747
102   3    0.7111
103   3    0.8210
104   3    0.8944
105   3    0.9334
106   3    0.9496
107   3    0.9531
108   3    0.9455
109   3    0.9215
110   3    0.8673
111   3    0.7742
112   3    0.6468
113   3    0.5046
114   3    0.3729
115   3    0.2696
116   3    0.2015
117   3    0.1655
118   3    0.1574
119   3    0.1769
120   3    0.2280
121   3    0.3178
122   3    0.4476
123   3    0.6030
124   3    0.7560
125   3    0.8734
126   3    0.9391
127   3    0.9639
128   3    0.9699
  1   4    0.9299
  2   4    0.8931
  3   4    0.8192
  4   4    0.7075
  5   4    0.5697
  6   4    0.4305
  7   4    0.3107
  8   4    0.2239
  9   4    0.1711
 10   4    0.1483
 11   4    0.1530
 12   4    0.1874
 13   4    0.2582
 14   4    0.3727
 15   4    0.5256
 16   4    0.6940
 17   4    0.8392
 18   4    0.9312
 19   4    0.9680
 20   4    0.9795
 21   4    0.9829
 22   4    0.9837
 23   4    0.9832
 24   4    0.9808
 25   4    0.9727
 26   4    0.9462
 27   4    0.8723
 28   4    0.7392
 29   4    0.5707
 30   4    0.4067
 31   4    0.2751
 32   4    0.1861
 33   4    0.1326
 34   4    0.1036
 35   4    0.0894
 36   4    0.0828
 37   4    0.0798
 38   4    0.0785
 39   4    0.0780
 40   4    0.0782
 41   4    0.0789
 42   4    0.0809
 43   4    0.0852
 44   4    0.0940
 45   4    0.1113
 46   4    0.1428
 47   4    0.1949
 48   4    0.2726
 49   4    0.3775
 50   4    0.5010
 51   4    0.6278
 52   4    0.7400
 53   4    0.8243
 54   4    0.8792
 55   4    0.9084
 56   4    0.9185
 57   4    0.9130
 58   4    0.8894
 59   4    0.8405
 60   4    0.7611
 61   4    0.6515
 62   4    0.5240
 63   4    0.3982
 64   4    0.2908
 65   4    0.2120
 66   4    0.1610
 67   4    0.1324
 68   4    0.1207
 69   4    0.1214
 70   4    0.1320
 71   4    0.1510
 72   4    0.1771
 73   4    0.2085
 74   4    0.2425
 75   4    0.2757
 76   4    0.3043
 77   4    0.3249
 78   4    0.3348
 79   4    0.3329
 80   4    0.3190
 81   4    0.2948
 82   4    0.2632
 83   4    0.2280
 84   4    0.1930
 85   4    0.1613
 86   4    0.1351
 87   4    0.1152
 88   4    0.1014
 89   4    0.0926
 90   4    0.0875
 91   4    0.0848
 92   4    0.0841
 93   4    0.0851
 94   4    0.0885
 95   4    0.0960
 96   4    0.1109
 97   4    0.1382
 98   4    0.1840
 99   4    0.2536
100   4    0.3495
101   4    0.4661
102   4    0.5887
103   4    0.7009
104   4    0.7877
105   4    0.8450
106   4    0.8753
107   4    0.8826
108   4    0.8679
109   4    0.8281
110   4    0.7584
111   4    0.6585
112   4    0.5383
113   4    0.4161
114   4    0.3089
115   4    0.2286
116   4    0.1767
117   4    0.1500
118   4    0.1455
119   4    0.1634
120   4    0.2078
121   4    0.2848
122   4    0.3980
123   4    0.5378
124   4    0.6835
125   4    0.8063
126   4    0.8889
127   4    0.9294
128   4    0.9403
  1   5    0.8443
  2   5    0.7931
  3   5    0.7073
  4   5    0.5931
  5   5    0.4678
  6   5    0.3497
  7   5    0.2545
  8   5    0.1884
  9   5    0.1495
 10   5    0.1343
 11   5    0.1413
 12   5    0.1731
 13   5    0.2365
 14   5    0.3390
 15   5    0.4793
 16   5    0.6396
 17   5    0.7888
 18   5    0.8968
 19   5    0.9516
 20   5    0.9718
 21   5    0.9786
 22   5    0.9803
 23   5    0.9795
 24   5    0.9748
 25   5    0.9604
 26   5    0.9193
 27   5    0.8266
 28   5    0.6858
 29   5    0.5221
 30   5    0.3703
 31   5    0.2522
 32   5    0.1736
 33   5    0.1265
 34   5    0.1011
 35   5    0.0885
 36   5    0.0825
 37   5    0.0798
 38   5    0.0785
 39   5    0.0781
 40   5    0.0782
 41   5    0.0793
 42   5    0.0819
 43   5    0.0877
 44   5    0.1000
 45   5    0.1241
 46   5    0.1674
 47   5    0.2373
 48   5    0.3393
 49   5    0.4700
 50   5    0.6134
 51   5    0.7472
 52   5    0.8502
 53   5    0.9154
 54   5    0.9476
 55   5    0.9612
 56   5    0.9654
 57   5    0.9631
 58   5    0.9524
 59   5    0.9245
 60   5    0.8641
 61   5    0.7630
 62   5    0.6283
 63   5    0.4822
 64   5    0.3496
 65   5    0.2472
 66   5    0.1787
 67   5    0.1379
 68   5    0.1171
 69   5    0.1099
 70   5    0.1117
 71   5    0.1200
 72   5    0.1334
 73   5    0.1507
 74   5    0.1703
 75   5    0.1900
 76   5    0.2076
 77   5    0.2208
 78   5    0.2279
 79   5    0.2276
 80   5    0.2201
 81   5    0.2061
 82   5    0.1876
 83   5    0.1668
 84   5    0.1461
 85   5    0.1276
 86   5    0.1124
 87   5    0.1009
 88   5    0.0930
 89   5    0.0879
 90   5    0.0848
 91   5    0.0832
 92   5    0.0829
 93   5    0.0836
 94   5    0.0861
 95   5    0.0913
 96   5    0.1016
 97   5    0.1204
 98   5    0.1523
 99   5    0.2015
100   5    0.2706
101   5    0.3588
102   5    0.4581
103   5    0.5558
104   5    0.6405
105   5    0.7030
106   5    0.7390
107   5    0.7484
108   5    0.7308
109   5    0.6857
110   5    0.6143
111   5    0.5229
112   5    0.4227
113   5    0.3268
114   5    0.2472
115   5    0.1893
116   5    0.1525
117   5    0.1342
118   5    0.1325
119   5    0.1480
120   5    0.1843
121   5    0.2466
122   5    0.3389
123   5    0.4571
124   5    0.5859
125   5    0.7048
126   5    0.7938
127   5    0.8457
128   5    0.8616
  1   6    0.7093
  2   6    0.6549
  3   6    0.5716
  4   6    0.4711
  5   6    0.3679
  6   6    0.2764
  7   6    0.2061
  8   6    0.1585
  9   6    0.1312
 10   6    0.1218
 11   6    0.1292
 12   6    0.1564
 13   6    0.2096
 14   6    0.2957
 15   6    0.4172
 16   6    0.5625
 17   6    0.7096
 18   6    0.8301
 19   6    0.9094
 20   6    0.9484
 21   6    0.9639
 22   6    0.9686
 23   6    0.9668
 24   6    0.9565
 25   6    0.9282
 26   6    0.8639
 27   6    0.7551
 28   6    0.6118
 29   6    0.4604
 30   6    0.3266
 31   6    0.2263
 32   6    0.1603
 33   6    0.1209
 34   6    0.0995
 35   6    0.0887
 36   6    0.0834
 37   6    0.0808
 38   6    0.0795
 39   6    0.0789
 40   6    0.0791
 41   6    0.0804
 42   6    0.0837
 43   6    0.0914
 44   6    0.1077
 45   6    0.1394
 46   6    0.1954
 47   6    0.2839
 48   6    0.4090
 49   6    0.5595
 50   6    0.7128
 51   6    0.8386
 52   6    0.9201
 53   6    0.9579
 54   6    0.9725
 55   6    0.9779
 56   6    0.9795
 57   6    0.9786
 58   6    0.9743
 59   6    0.9614
 60   6    0.9256
 61   6    0.8440
 62   6    0.7145
 63   6    0.5573
 64   6    0.4053
 65   6    0.2820
 66   6    0.1971
 67   6    0.1452
 68   6    0.1170
 69   6    0.1041
 70   6    0.1005
 71   6    0.1026
 72   6    0.1085
 73   6    0.1172
 74   6    0.1278
 75   6    0.1391
 76   6    0.1498
 77   6    0.1586
 78   6    0.1642
 79   6    0.1658
 80   6    0.1631
 81   6    0.1563
 82   6    0.1465
 83   6    0.1348
 84   6    0.1229
 85   6    0.1118
 86   6    0.1024
 87   6    0.0951
 88   6    0.0898
 89   6    0.0862
 90   6    0.0840
 91   6    0.0827
 92   6    0.0823
 93   6    0.0827
 94   6    0.0843
 95   6    0.0877
 96   6    0.0944
 97   6    0.1065
 98   6    0.1272
 99   6    0.1597
100   6    0.2060
101   6    0.2663
102   6    0.3376
103   6    0.4125
104   6    0.4811
105   6    0.5350
106   6    0.5681
107   6    0.5771
108   6    0.5610
109   6    0.5212
110   6    0.4620
111   6    0.3902
112   6    0.3157
113   6    0.2484
114   6    0.1944
115   6    0.1556
116   6    0.1314
117   6    0.1199
118   6    0.1201
119   6    0.1327
120   6    0.1607
121   6    0.2081
122   6    0.2781
123   6    0.3704
124   6    0.4752
125   6    0.5771
126   6    0.6604
127   6    0.7127
128   6    0.7292
  1   7    0.5501
  2   7    0.5033
  3   7    0.4354
  4   7    0.3570
  5   7    0.2806
  6   7    0.2160
  7   7    0.1673
  8   7    0.1348
  9   7    0.1168
 10   7    0.1113
 11   7    0.1180
 12   7    0.1396
 13   7    0.1812
 14   7    0.2490
 15   7    0.3470
 16   7    0.4705
 17   7    0.6041
 18   7    0.7278
 19   7    0.8230
 20   7    0.8850
 21   7    0.9175
 22   7    0.9292
 23   7    0.9253
 24   7    0.9038
 25   7    0.8555
 26   7    0.7733
 27   7    0.6581
 28   7    0.5237
 29   7    0.3924
 30   7    0.2820
 31   7    0.2019
 32   7    0.1494
 33   7    0.1179
 34   7    0.1006
 35   7    0.0915
 36   7    0.0867
 37   7    0.0840
 38   7    0.0824
 39   7    0.0816
 40   7    0.0815
 41   7    0.0828
 42   7    0.0869
 43   7    0.0965
 44   7    0.1169
 45   7    0.1565
 46   7    0.2248
 47   7    0.3309
 48   7    0.4747
 49   7    0.6381
 50   7    0.7897
 51   7    0.8990
 52   7    0.9537
 53   7    0.9736
 54   7    0.9803
 55   7    0.9825
 56   7    0.9832
 57   7    0.9829
 58   7    0.9810
 59   7    0.9747
 60   7    0.9538
 61   7    0.8939
 62   7    0.7753
 63   7    0.6155
 64   7    0.4505
 65   7    0.3115
 66   7    0.2133
 67   7    0.1523
 68   7    0.1184
 69   7    0.1017
 70   7    0.0950
 71   7    0.0938
 72   7    0.0959
 73   7    0.1002
 74   7    0.1062
 75   7    0.1132
 76   7    0.1208
 77   7    0.1280
 78   7    0.1339
 79   7    0.1379
 80   7    0.1391
 81   7    0.1375
 82   7    0.1331
 83   7    0.1266
 84   7    0.1188
 85   7    0.1107
 86   7    0.1032
 87   7    0.0967
 88   7    0.0915
 89   7    0.0877
 90   7    0.0850
 91   7    0.0833
 92   7    0.0824
 93   7    0.0823
 94   7    0.0831
 95   7    0.0851
 96   7    0.0892
 97   7    0.0966
 98   7    0.1092
 99   7    0.1290
100   7    0.1579
101   7    0.1961
102   7    0.2419
103   7    0.2918
104   7    0.3398
105   7    0.3791
106   7    0.4041
107   7    0.4112
108   7    0.3993
109   7    0.3700
110   7    0.3278
111   7    0.2789
112   7    0.2303
113   7    0.1874
114   7    0.1534
115   7    0.1294
116   7    0.1147
117   7    0.1083
118   7    0.1095
119   7    0.1191
120   7    0.1393
121   7    0.1733
122   7    0.2232
123   7    0.2891
124   7    0.3666
125   7    0.4450
126   7    0.5113
127   7    0.5547
128   7    0.5683
  1   8    0.4014
  2   8    0.3667
  3   8    0.3179
  4   8    0.2639
  5   8    0.2129
  6   8    0.1703
  7   8    0.1385
  8   8    0.1175
  9   8    0.1061
 10   8    0.1031
 11   8    0.1084
 12   8    0.1243
 13   8    0.1548
 14   8    0.2047
 15   8    0.2779
 16   8    0.3743
 17   8    0.4852
 18   8    0.5966
 19   8    0.6940
 20   8    0.7665
 21   8    0.8113
 22   8    0.8305
 23   8    0.8255
 24   8    0.7955
 25   8    0.7379
 26   8    0.6520
 27   8    0.5452
 28   8    0.4321
 29   8    0.3274
 30   8    0.2435
 31   8    0.1837
 32   8    0.1446
 33   8    0.1210
 34   8    0.1075
 35   8    0.0999
 36   8    0.0953
 37   8    0.0922
 38   8    0.0898
 39   8    0.0880
 40   8    0.0872
 41   8    0.0881
 42   8    0.0925
 43   8    0.1037
 44   8    0.1280
 45   8    0.1744
 46   8    0.2535
 47   8    0.3739
 48   8    0.5304
 49   8    0.6994
 50   8    0.8428
 51   8    0.9323
 52   8    0.9680
 53   8    0.9791
 54   8    0.9827
 55   8    0.9837
 56   8    0.9841
 57   8    0.9841
 58   8    0.9829
 59   8    0.9790
 60   8    0.9650
 61   8    0.9185
 62   8    0.8102
 63   8    0.6517
 64   8    0.4797
 65   8    0.3311
 66   8    0.2242
 67   8    0.1574
 68   8    0.1198
 69   8    0.1009
 70   8    0.0926
 71   8    0.0900
 72   8    0.0905
 73   8    0.0933
 74   8    0.0978
 75   8    0.1040
 76   8    0.1116
 77   8    0.1201
 78   8    0.1289
 79   8    0.1367
 80   8    0.1425
 81   8    0.1453
 82   8    0.1447
 83   8    0.1406
 84   8    0.1338
 85   8    0.1252
 86   8    0.1159
 87   8    0.1070
 88   8    0.0993
 89   8    0.0931
 90   8    0.0885
 91   8    0.0854
 92   8    0.0834
 93   8    0.0825
 94   8    0.0825
 95   8    0.0835
 96   8    0.0858
 97   8    0.0900
 98   8    0.0972
 99   8    0.1086
100   8    0.1253
101   8    0.1477
102   8    0.1750
103   8    0.2049
104   8    0.2342
105   8    0.2588
106   8    0.2747
107   8    0.2793
108   8    0.2718
109   8    0.2536
110   8    0.2277
111   8    0.1983
112   8    0.1694
113   8    0.1441
114   8    0.1244
115   8    0.1107
116   8    0.1026
117   8    0.0994
118   8    0.1009
119   8    0.1079
120   8    0.1218
121   8    0.1447
122   8    0.1782
123   8    0.2221
124   8    0.2740
125   8    0.3278
126   8    0.3747
127   8    0.4059
128   8    0.4153
  1   9    0.2839
  2   9    0.2614
  3   9    0.2305
  4   9    0.1966
  5   9    0.1648
  6   9    0.1383
  7   9    0.1186
  8   9    0.1057
  9   9    0.0988
 10   9    0.0971
 11   9    0.1009
 12   9    0.1117
 13   9    0.1325
 14   9    0.1668
 15   9    0.2176
 16   9    0.2860
 17   9    0.3691
 18   9    0.4580
 19   9    0.5414
 20   9    0.6099
 21   9    0.6567
 22   9    0.6787
 23   9    0.6749
 24   9    0.6454
 25   9    0.5915
 26   9    0.5181
 27   9    0.4336
 28   9    0.3488
 29   9    0.2746
 30   9    0.2172
 31   9    0.1770
 32   9    0.1510
 33   9    0.1351
 34   9    0.1256
 35   9    0.1195
 36   9    0.1149
 37   9    0.1106
 38   9    0.1064
 39   9    0.1026
 40   9    0.0997
 41   9    0.0991
 42   9    0.1028
 43   9    0.1147
 44   9    0.1415
 45   9    0.1927
 46   9    0.2794
 47   9    0.4090
 48   9    0.5721
 49   9    0.7410
 50   9    0.8749
 51   9    0.9482
 52   9    0.9736
 53   9    0.9812
 54   9    0.9834
 55   9    0.9840
 56   9    0.9843
 57   9    0.9842
 58   9    0.9834
 59   9    0.9802
 60   9    0.9678
 61   9    0.9257
 62   9    0.8215
 63   9    0.6639
 64   9    0.4897
 65   9    0.3378
 66   9    0.2279
 67   9    0.1590
 68   9    0.1201
 69   9    0.1005
 70   9    0.0918
 71   9    0.0890
 72   9    0.0895
 73   9    0.0925
 74   9    0.0981
 75   9    0.1064
 76   9    0.1175
 77   9    0.1311
 78   9    0.1460
 79   9    0.1608
 80   9    0.1733
 81   9    0.1817
 82   9    0.1847
 83   9    0.1816
 84   9    0.1732
 85   9    0.1606
 86   9    0.1457
 87   9    0.1305
 88   9    0.1166
 89   9    0.1050
 90   9    0.0962
 91   9    0.0900
 92   9    0.0860
 93   9    0.0837
 94   9    0.0827
 95   9    0.0827
 96   9    0.0837
 97   9    0.0860
 98   9    0.0899
 99   9    0.0962
100   9    0.1052
101   9    0.1175
102   9    0.1326
103   9    0.1493
104   9    0.1658
105   9    0.1797
106   9    0.1887
107   9    0.1913
108   9    0.1870
109   9    0.1767
110   9    0.1622
111   9    0.1458
112   9    0.1298
113   9    0.1161
114   9    0.1055
115   9    0.0983
116   9    0.0942
117   9    0.0929
118   9    0.0945
119   9    0.0993
120   9    0.1085
121   9    0.1232
122   9    0.1444
123   9    0.1722
124   9    0.2047
125   9    0.2382
126   9    0.2677
127   9    0.2874
128   9    0.2932
  1  10    0.2043
  2  10    0.1909
  3  10    0.1725
  4  10    0.1524
  5  10    0.1334
  6  10    0.1176
  7  10    0.1059
  8  10    0.0981
  9  10    0.0940
 10  10    0.0930
 11  10    0.0954
 12  10    0.1022
 13  10    0.1154
 14  10    0.1373
 15  10    0.1702
 16  10    0.2149
 17  10    0.2705
 18  10    0.3330
 19  10    0.3952
 20  10    0.4491
 21  10    0.4881
 22  10    0.5080
 23  10    0.5070
 24  10    0.4855
 25  10    0.4464
 26  10    0.3949
 27  10    0.3385
 28  10    0.2852
 29  10    0.2411
 30  10    0.2088
 31  10    0.1875
 32  10    0.1749
 33  10    0.1679
 34  10    0.1635
 35  10    0.1596
 36  10    0.1548
 37  10    0.1484
 38  10    0.1408
 39  10    0.1327
 40  10    0.1254
 41  10    0.1209
 42  10    0.1217
 43  10    0.1321
 44  10    0.1588
 45  10    0.2114
 46  10    0.3010
 47  10    0.4335
 48  10    0.5972
 49  10    0.7625
 50  10    0.8891
 51  10    0.9538
 52  10    0.9754
 53  10    0.9815
 54  10    0.9833
 55  10    0.9840
 56  10    0.9841
 57  10    0.9839
 58  10    0.9831
 59  10    0.9791
 60  10    0.9651
 61  10    0.9189
 62  10    0.8106
 63  10    0.6518
 64  10    0.4794
 65  10    0.3304
 66  10    0.2234
 67  10    0.1565
 68  10    0.1189
 69  10    0.1001
 70  10    0.0920
 71  10    0.0898
 72  10    0.0915
 73  10    0.0966
 74  10    0.1057
 75  10    0.1196
 76  10    0.1385
 77  10    0.1619
 78  10    0.1881
 79  10    0.2145
 80  10    0.2375
 81  10    0.2540
 82  10    0.2614
 83  10    0.2586
 84  10    0.2460
 85  10    0.2257
 86  10    0.2007
 87  10    0.1742
 88  10    0.1492
 89  10    0.1277
 90  10    0.1110
 91  10    0.0990
 92  10    0.0911
 93  10    0.0863
 94  10    0.0837
 95  10    0.0827
 96  10    0.0827
 97  10    0.0838
 98  10    0.0859
 99  10    0.0893
100  10    0.0942
101  10    0.1007
102  10    0.1086
103  10    0.1174
104  10    0.1261
105  10    0.1334
106  10    0.1380
107  10    0.1392
108  10    0.1368
109  10    0.1311
110  10    0.1234
111  10    0.1147
112  10    0.1065
113  10    0.0994
114  10    0.0940
115  10    0.0905
116  10    0.0886
117  10    0.0883
118  10    0.0896
119  10    0.0930
120  10    0.0989
121  10    0.1081
122  10    0.1211
123  10    0.1380
124  10    0.1575
125  10    0.1776
126  10    0.1950
127  10    0.2065
128  10    0.2099
  1  11    0.1559
  2  11    0.1482
  3  11    0.1375
  4  11    0.1258
  5  11    0.1147
  6  11    0.1054
  7  11    0.0984
  8  11    0.0937
  9  11    0.0910
 10  11    0.0903
 11  11    0.0916
 12  11    0.0956
 13  11    0.1033
 14  11    0.1163
 15  11    0.1359
 16  11    0.1631
 17  11    0.1973
 18  11    0.2363
 19  11    0.2765
 20  11    0.3130
 21  11    0.3410
 22  11    0.3568
 23  11    0.3588
 24  11    0.3477
 25  11    0.3262
 26  11    0.2990
 27  11    0.2712
 28  11    0.2478
 29  11    0.2317
 30  11    0.2236
 31  11    0.2223
 32  11    0.2252
 33  11    0.2294
 34  11    0.2322
 35  11    0.2316
 36  11    0.2265
 37  11    0.2170
 38  11    0.2038
 39  11    0.1885
 40  11    0.1732
 41  11    0.1609
 42  11    0.1548
 43  11    0.1597
 44  11    0.1822
 45  11    0.2314
 46  11    0.3176
 47  11    0.4457
 48  11    0.6039
 49  11    0.7637
 50  11    0.8869
 51  11    0.9516
 52  11    0.9740
 53  11    0.9807
 54  11    0.9828
 55  11    0.9835
 56  11    0.9835
 57  11    0.9831
 58  11    0.9813
 59  11    0.9752
 60  11    0.9549
 61  11    0.8955
 62  11    0.7766
 63  11    0.6159
 64  11    0.4499
 65  11    0.3100
 66  11    0.2114
 67  11    0.1502
 68  11    0.1161
 69  11    0.0994
 70  11    0.0927
 71  11    0.0921
 72  11    0.0963
 73  11    0.1056
 74  11    0.1215
 75  11    0.1452
 76  11    0.1773
 77  11    0.2167
 78  11    0.2606
 79  11    0.3045
 80  11    0.3428
 81  11    0.3702
 82  11    0.3832
 83  11    0.3801
 84  11    0.3614
 85  11    0.3298
 86  11    0.2896
 87  11    0.2458
 88  11    0.2036
 89  11    0.1665
 90  11    0.1367
 91  11    0.1149
 92  11    0.1003
 93  11    0.0913
 94  11    0.0862
 95  11    0.0837
 96  11    0.0828
 97  11    0.0831
 98  11    0.0843
 99  11    0.0863
100  11    0.0892
101  11    0.0929
102  11    0.0973
103  11    0.1021
104  11    0.1066
105  11    0.1102
106  11    0.1123
107  11    0.1125
108  11    0.1107
109  11    0.1074
110  11    0.1030
111  11    0.0983
112  11    0.0939
113  11    0.0902
114  11    0.0874
115  11    0.0856
116  11    0.0847
117  11    0.0849
118  11    0.0861
119  11    0.0885
120  11    0.0924
121  11    0.0982
122  11    0.1063
123  11    0.1165
124  11    0.1281
125  11    0.1400
126  11    0.1503
127  11    0.1572
128  11    0.1592
  1  12    0.1302
  2  12    0.1256
  3  12    0.1191
  4  12    0.1119
  5  12    0.1050
  6  12    0.0991
  7  12    0.0946
  8  12    0.0914
  9  12    0.0894
 10  12    0.0887
 11  12    0.0892
 12  12    0.0913
 13  12    0.0955
 14  12    0.1026
 15  12    0.1134
 16  12    0.1286
 17  12    0.1480
 18  12    0.1705
 19  12    0.1940
 20  12    0.2160
 21  12    0.2337
 22  12    0.2452
 23  12    0.2498
 24  12    0.2483
 25  12    0.2430
 26  12    0.2374
 27  12    0.2350
 28  12    0.2386
 29  12    0.2496
 30  12    0.2672
 31  12    0.2888
 32  12    0.3110
 33  12    0.3298
 34  12    0.3423
 35  12    0.3463
 36  12    0.3412
 37  12    0.3273
 38  12    0.3062
 39  12    0.2802
 40  12    0.2525
 41  12    0.2272
 42  12    0.2087
 43  12    0.2023
 44  12    0.2146
 45  12    0.2540
 46  12    0.3296
 47  12    0.4452
 48  12    0.5909
 49  12    0.7425
 50  12    0.8655
 51  12    0.9384
 52  12    0.9675
 53  12    0.9772
 54  12    0.9806
 55  12    0.9816
 56  12    0.9816
 57  12    0.9803
 58  12    0.9761
 59  12    0.9640
 60  12    0.9294
 61  12    0.8481
 62  12    0.7175
 63  12    0.5582
 64  12    0.4042
 65  12    0.2794
 66  12    0.1936
 67  12    0.1410
 68  12    0.1121
 69  12    0.0985
 70  12    0.0941
 71  12    0.0961
 72  12    0.1044
 73  12    0.1205
 74  12    0.1470
 75  12    0.1858
 76  12    0.2373
 77  12    0.2995
 78  12    0.3674
 79  12    0.4328
 80  12    0.4875
 81  12    0.5256
 82  12    0.5436
 83  12    0.5403
 84  12    0.5161
 85  12    0.4735
 86  12    0.4165
 87  12    0.3513
 88  12    0.2856
 89  12    0.2263
 90  12    0.1776
 91  12    0.1409
 92  12    0.1157
 93  12    0.0999
 94  12    0.0908
 95  12    0.0861
 96  12    0.0841
 97  12    0.0838
 98  12    0.0846
 99  12    0.0863
100  12    0.0887
101  12    0.0917
102  12    0.0949
103  12    0.0981
104  12    0.1009
105  12    0.1027
106  12    0.1034
107  12    0.1027
108  12    0.1007
109  12    0.0978
110  12    0.0945
111  12    0.0911
112  12    0.0880
113  12    0.0855
114  12    0.0836
115  12    0.0825
116  12    0.0821
117  12    0.0823
118  12    0.0834
119  12    0.0852
120  12    0.0881
121  12    0.0923
122  12    0.0977
123  12    0.1045
124  12    0.1120
125  12    0.1197
126  12    0.1263
127  12    0.1307
128  12    0.1321
  1  13    0.1210
  2  13    0.1176
  3  13    0.1126
  4  13    0.1071
  5  13    0.1017
  6  13    0.0970
  7  13    0.0933
  8  13    0.0906
  9  13    0.0888
 10  13    0.0879
 11  13    0.0878
 12  13    0.0887
 13  13    0.0907
 14  13    0.0943
 15  13    0.0998
 16  13    0.1076
 17  13    0.1177
 18  13    0.1296
 19  13    0.1424
 20  13    0.1548
 21  13    0.1657
 22  13    0.1744
 23  13    0.1811
 24  13    0.1872
 25  13    0.1949
 26  13    0.2074
 27  13    0.2276
 28  13    0.2574
 29  13    0.2970
 30  13    0.3435
 31  13    0.3917
 32  13    0.4358
 33  13    0.4709
 34  13    0.4937
 35  13    0.5029
 36  13    0.4983
 37  13    0.4807
 38  13    0.4516
 39  13    0.4136
 40  13    0.3702
 41  13    0.3268
 42  13    0.2893
 43  13    0.2644
 44  13    0.2592
 45  13    0.2812
 46  13    0.3381
 47  13    0.4328
 48  13    0.5583
 49  13    0.6963
 50  13    0.8182
 51  13    0.9038
 52  13    0.9478
 53  13    0.9658
 54  13    0.9728
 55  13    0.9751
 56  13    0.9745
 57  13    0.9706
 58  13    0.9600
 59  13    0.9336
 60  13    0.8738
 61  13    0.7711
 62  13    0.6333
 63  13    0.4835
 64  13    0.3478
 65  13    0.2431
 66  13    0.1728
 67  13    0.1303
 68  13    0.1076
 69  13    0.0977
 70  13    0.0962
 71  13    0.1019
 72  13    0.1162
 73  13    0.1422
 74  13    0.1836
 75  13    0.2428
 76  13    0.3199
 77  13    0.4099
 78  13    0.5022
 79  13    0.5859
 80  13    0.6525
 81  13    0.6967
 82  13    0.7170
 83  13    0.7138
 84  13    0.6876
 85  13    0.6388
 86  13    0.5699
 87  13    0.4865
 88  13    0.3968
 89  13    0.3104
 90  13    0.2367
 91  13    0.1798
 92  13    0.1395
 93  13    0.1136
 94  13    0.0985
 95  13    0.0906
 96  13    0.0872
 97  13    0.0865
 98  13    0.0876
 99  13    0.0899
100  13    0.0932
101  13    0.0970
102  13    0.1009
103  13    0.1044
104  13    0.1070
105  13    0.1083
106  13    0.1079
107  13    0.1059
108  13    0.1027
109  13    0.0986
110  13    0.0943
111  13    0.0902
112  13    0.0867
113  13    0.0840
114  13    0.0820
115  13    0.0808
116  13    0.0803
117  13    0.0805
118  13    0.0814
119  13    0.0831
120  13    0.0857
121  13    0.0893
122  13    0.0940
123  13    0.0996
124  13    0.1059
125  13    0.1121
126  13    0.1174