variables =  "IG"  "JG"  "PHI"
 ZONE I=         128 J=          128
  1   1    0.9778
  2   1    0.9761
  3   1    0.9706
  4   1    0.9569
  5   1    0.9241
  6   1    0.8557
  7   1    0.7495
  8   1    0.6179
  9   1    0.4859
 10   1    0.3772
 11   1    0.3075
 12   1    0.2845
 13   1    0.3112
 14   1    0.3890
 15   1    0.5122
 16   1    0.6628
 17   1    0.8067
 18   1    0.9105
 19   1    0.9597
 20   1    0.9764
 21   1    0.9816
 22   1    0.9833
 23   1    0.9832
 24   1    0.9815
 25   1    0.9744
 26   1    0.9503
 27   1    0.8809
 28   1    0.7505
 29   1    0.5827
 30   1    0.4177
 31   1    0.2843
 32   1    0.1936
 33   1    0.1388
 34   1    0.1089
 35   1    0.0940
 36   1    0.0872
 37   1    0.0841
 38   1    0.0829
 39   1    0.0823
 40   1    0.0821
 41   1    0.0820
 42   1    0.0822
 43   1    0.0828
 44   1    0.0844
 45   1    0.0879
 46   1    0.0945
 47   1    0.1061
 48   1    0.1249
 49   1    0.1525
 50   1    0.1894
 51   1    0.2342
 52   1    0.2839
 53   1    0.3329
 54   1    0.3750
 55   1    0.4043
 56   1    0.4169
 57   1    0.4110
 58   1    0.3874
 59   1    0.3493
 60   1    0.3022
 61   1    0.2530
 62   1    0.2079
 63   1    0.1714
 64   1    0.1459
 65   1    0.1326
 66   1    0.1323
 67   1    0.1468
 68   1    0.1788
 69   1    0.2316
 70   1    0.3070
 71   1    0.4023
 72   1    0.5077
 73   1    0.6114
 74   1    0.7021
 75   1    0.7718
 76   1    0.8193
 77   1    0.8470
 78   1    0.8578
 79   1    0.8530
 80   1    0.8320
 81   1    0.7926
 82   1    0.7322
 83   1    0.6501
 84   1    0.5511
 85   1    0.4453
 86   1    0.3437
 87   1    0.2571
 88   1    0.1913
 89   1    0.1455
 90   1    0.1167
 91   1    0.1006
 92   1    0.0933
 93   1    0.0925
 94   1    0.0983
 95   1    0.1138
 96   1    0.1453
 97   1    0.2017
 98   1    0.2925
 99   1    0.4226
100   1    0.5802
101   1    0.7391
102   1    0.8650
103   1    0.9385
104   1    0.9678
105   1    0.9779
106   1    0.9807
107   1    0.9804
108   1    0.9762
109   1    0.9626
110   1    0.9233
111   1    0.8336
112   1    0.6963
113   1    0.5368
114   1    0.3903
115   1    0.2785
116   1    0.2092
117   1    0.1779
118   1    0.1801
119   1    0.2159
120   1    0.2894
121   1    0.4032
122   1    0.5474
123   1    0.7000
124   1    0.8295
125   1    0.9156
126   1    0.9561
127   1    0.9714
128   1    0.9766
  1   2    0.9619
  2   2    0.9576
  3   2    0.9437
  4   2    0.9125
  5   2    0.8529
  6   2    0.7614
  7   2    0.6437
  8   2    0.5168
  9   2    0.4019
 10   2    0.3149
 11   2    0.2662
 12   2    0.2598
 13   2    0.2993
 14   2    0.3881
 15   2    0.5210
 16   2    0.6787
 17   2    0.8243
 18   2    0.9237
 19   2    0.9659
 20   2    0.9792
 21   2    0.9831
 22   2    0.9842
 23   2    0.9840
 24   2    0.9828
 25   2    0.9773
 26   2    0.9577
 27   2    0.8958
 28   2    0.7690
 29   2    0.5998
 30   2    0.4297
 31   2    0.2908
 32   2    0.1959
 33   2    0.1385
 34   2    0.1071
 35   2    0.0916
 36   2    0.0844
 37   2    0.0811
 38   2    0.0796
 39   2    0.0789
 40   2    0.0787
 41   2    0.0788
 42   2    0.0794
 43   2    0.0810
 44   2    0.0841
 45   2    0.0904
 46   2    0.1020
 47   2    0.1219
 48   2    0.1533
 49   2    0.1983
 50   2    0.2570
 51   2    0.3270
 52   2    0.4016
 53   2    0.4718
 54   2    0.5291
 55   2    0.5677
 56   2    0.5837
 57   2    0.5758
 58   2    0.5443
 59   2    0.4921
 60   2    0.4249
 61   2    0.3507
 62   2    0.2796
 63   2    0.2199
 64   2    0.1753
 65   2    0.1469
 66   2    0.1338
 67   2    0.1353
 68   2    0.1517
 69   2    0.1843
 70   2    0.2341
 71   2    0.3007
 72   2    0.3804
 73   2    0.4650
 74   2    0.5454
 75   2    0.6142
 76   2    0.6664
 77   2    0.6994
 78   2    0.7128
 79   2    0.7068
 80   2    0.6814
 81   2    0.6364
 82   2    0.5735
 83   2    0.4967
 84   2    0.4123
 85   2    0.3285
 86   2    0.2541
 87   2    0.1944
 88   2    0.1504
 89   2    0.1207
 90   2    0.1027
 91   2    0.0930
 92   2    0.0889
 93   2    0.0893
 94   2    0.0945
 95   2    0.1074
 96   2    0.1334
 97   2    0.1801
 98   2    0.2557
 99   2    0.3665
100   2    0.5067
101   2    0.6576
102   2    0.7912
103   2    0.8866
104   2    0.9384
105   2    0.9600
106   2    0.9672
107   2    0.9664
108   2    0.9567
109   2    0.9294
110   2    0.8668
111   2    0.7605
112   2    0.6203
113   2    0.4722
114   2    0.3421
115   2    0.2462
116   2    0.1873
117   2    0.1602
118   2    0.1606
119   2    0.1886
120   2    0.2475
121   2    0.3414
122   2    0.4667
123   2    0.6081
124   2    0.7426
125   2    0.8472
126   2    0.9136
127   2    0.9459
128   2    0.9588
  1   3    0.9099
  2   3    0.8999
  3   3    0.8709
  4   3    0.8181
  5   3    0.7394
  6   3    0.6368
  7   3    0.5222
  8   3    0.4115
  9   3    0.3189
 10   3    0.2552
 11   3    0.2249
 12   3    0.2308
 13   3    0.2774
 14   3    0.3701
 15   3    0.5057
 16   3    0.6659
 17   3    0.8152
 18   3    0.9187
 19   3    0.9642
 20   3    0.9787
 21   3    0.9828
 22   3    0.9840
 23   3    0.9840
 24   3    0.9826
 25   3    0.9768
 26   3    0.9563
 27   3    0.8927
 28   3    0.7647
 29   3    0.5949
 30   3    0.4253
 31   3    0.2872
 32   3    0.1931
 33   3    0.1362
 34   3    0.1053
 35   3    0.0900
 36   3    0.0828
 37   3    0.0795
 38   3    0.0779
 39   3    0.0772
 40   3    0.0770
 41   3    0.0774
 42   3    0.0784
 43   3    0.0809
 44   3    0.0860
 45   3    0.0961
 46   3    0.1146
 47   3    0.1462
 48   3    0.1947
 49   3    0.2624
 50   3    0.3486
 51   3    0.4461
 52   3    0.5434
 53   3    0.6296
 54   3    0.6959
 55   3    0.7376
 56   3    0.7541
 57   3    0.7456
 58   3    0.7114
 59   3    0.6511
 60   3    0.5681
 61   3    0.4713
 62   3    0.3723
 63   3    0.2840
 64   3    0.2154
 65   3    0.1683
 66   3    0.1408
 67   3    0.1299
 68   3    0.1332
 69   3    0.1497
 70   3    0.1792
 71   3    0.2212
 72   3    0.2741
 73   3    0.3341
 74   3    0.3953
 75   3    0.4511
 76   3    0.4957
 77   3    0.5255
 78   3    0.5382
 79   3    0.5328
 80   3    0.5096
 81   3    0.4703
 82   3    0.4179
 83   3    0.3572
 84   3    0.2947
 85   3    0.2366
 86   3    0.1875
 87   3    0.1492
 88   3    0.1217
 89   3    0.1039
 90   3    0.0933
 91   3    0.0877
 92   3    0.0857
 93   3    0.0866
 94   3    0.0909
 95   3    0.1010
 96   3    0.1210
 97   3    0.1572
 98   3    0.2163
 99   3    0.3042
100   3    0.4208
101   3    0.5536
102   3    0.6841
103   3    0.7909
104   3    0.8644
105   3    0.9055
106   3    0.9220
107   3    0.9201
108   3    0.8989
109   3    0.8507
110   3    0.7691
111   3    0.6552
112   3    0.5228
113   3    0.3940
114   3    0.2865
115   3    0.2100
116   3    0.1631
117   3    0.1413
118   3    0.1408
119   3    0.1614
120   3    0.2059
121   3    0.2783
122   3    0.3796
123   3    0.5011
124   3    0.6271
125   3    0.7391
126   3    0.8227
127   3    0.8760
128   3    0.9029
  1   4    0.7943
  2   4    0.7800
  3   4    0.7416
  4   4    0.6790
  5   4    0.5953
  6   4    0.4990
  7   4    0.4012
  8   4    0.3137
  9   4    0.2463
 10   4    0.2036
 11   4    0.1875
 12   4    0.2008
 13   4    0.2487
 14   4    0.3380
 15   4    0.4689
 16   4    0.6263
 17   4    0.7796
 18   4    0.8945
 19   4    0.9534
 20   4    0.9742
 21   4    0.9808
 22   4    0.9828
 23   4    0.9827
 24   4    0.9806
 25   4    0.9726
 26   4    0.9460
 27   4    0.8716
 28   4    0.7377
 29   4    0.5689
 30   4    0.4051
 31   4    0.2739
 32   4    0.1854
 33   4    0.1320
 34   4    0.1031
 35   4    0.0887
 36   4    0.0819
 37   4    0.0787
 38   4    0.0771
 39   4    0.0764
 40   4    0.0763
 41   4    0.0768
 42   4    0.0784
 43   4    0.0821
 44   4    0.0898
 45   4    0.1051
 46   4    0.1332
 47   4    0.1797
 48   4    0.2494
 49   4    0.3442
 50   4    0.4584
 51   4    0.5785
 52   4    0.6896
 53   4    0.7777
 54   4    0.8382
 55   4    0.8730
 56   4    0.8858
 57   4    0.8790
 58   4    0.8505
 59   4    0.7954
 60   4    0.7107
 61   4    0.5998
 62   4    0.4774
 63   4    0.3608
 64   4    0.2647
 65   4    0.1961
 66   4    0.1528
 67   4    0.1298
 68   4    0.1222
 69   4    0.1267
 70   4    0.1413
 71   4    0.1651
 72   4    0.1968
 73   4    0.2342
 74   4    0.2742
 75   4    0.3126
 76   4    0.3449
 77   4    0.3674
 78   4    0.3774
 79   4    0.3737
 80   4    0.3565
 81   4    0.3278
 82   4    0.2908
 83   4    0.2499
 84   4    0.2094
 85   4    0.1728
 86   4    0.1425
 87   4    0.1195
 88   4    0.1036
 89   4    0.0934
 90   4    0.0874
 91   4    0.0844
 92   4    0.0835
 93   4    0.0844
 94   4    0.0878
 95   4    0.0952
 96   4    0.1096
 97   4    0.1358
 98   4    0.1791
 99   4    0.2441
100   4    0.3329
101   4    0.4405
102   4    0.5534
103   4    0.6570
104   4    0.7377
105   4    0.7897
106   4    0.8135
107   4    0.8106
108   4    0.7808
109   4    0.7223
110   4    0.6356
111   4    0.5287
112   4    0.4163
113   4    0.3132
114   4    0.2316
115   4    0.1746
116   4    0.1400
117   4    0.1237
118   4    0.1228
119   4    0.1370
120   4    0.1687
121   4    0.2210
122   4    0.2961
123   4    0.3917
124   4    0.4975
125   4    0.6002
126   4    0.6871
127   4    0.7491
128   4    0.7844
  1   5    0.6315
  2   5    0.6165
  3   5    0.5778
  4   5    0.5193
  5   5    0.4471
  6   5    0.3692
  7   5    0.2954
  8   5    0.2338
  9   5    0.1889
 10   5    0.1626
 11   5    0.1562
 12   5    0.1725
 13   5    0.2169
 14   5    0.2968
 15   5    0.4156
 16   5    0.5632
 17   5    0.7167
 18   5    0.8438
 19   5    0.9249
 20   5    0.9609
 21   5    0.9741
 22   5    0.9782
 23   5    0.9784
 24   5    0.9743
 25   5    0.9604
 26   5    0.9199
 27   5    0.8282
 28   5    0.6878
 29   5    0.5241
 30   5    0.3718
 31   5    0.2533
 32   5    0.1742
 33   5    0.1267
 34   5    0.1008
 35   5    0.0879
 36   5    0.0816
 37   5    0.0785
 38   5    0.0770
 39   5    0.0762
 40   5    0.0762
 41   5    0.0769
 42   5    0.0792
 43   5    0.0845
 44   5    0.0957
 45   5    0.1179
 46   5    0.1578
 47   5    0.2223
 48   5    0.3162
 49   5    0.4380
 50   5    0.5743
 51   5    0.7063
 52   5    0.8134
 53   5    0.8873
 54   5    0.9287
 55   5    0.9477
 56   5    0.9537
 57   5    0.9505
 58   5    0.9353
 59   5    0.8982
 60   5    0.8264
 61   5    0.7177
 62   5    0.5815
 63   5    0.4416
 64   5    0.3192
 65   5    0.2279
 66   5    0.1681
 67   5    0.1335
 68   5    0.1170
 69   5    0.1129
 70   5    0.1175
 71   5    0.1290
 72   5    0.1461
 73   5    0.1674
 74   5    0.1910
 75   5    0.2143
 76   5    0.2346
 77   5    0.2493
 78   5    0.2563
 79   5    0.2547
 80   5    0.2444
 81   5    0.2269
 82   5    0.2043
 83   5    0.1795
 84   5    0.1551
 85   5    0.1334
 86   5    0.1156
 87   5    0.1024
 88   5    0.0933
 89   5    0.0875
 90   5    0.0841
 91   5    0.0824
 92   5    0.0820
 93   5    0.0828
 94   5    0.0852
 95   5    0.0903
 96   5    0.1001
 97   5    0.1178
 98   5    0.1473
 99   5    0.1922
100   5    0.2545
101   5    0.3328
102   5    0.4204
103   5    0.5057
104   5    0.5779
105   5    0.6287
106   5    0.6535
107   5    0.6504
108   5    0.6197
109   5    0.5636
110   5    0.4877
111   5    0.4010
112   5    0.3149
113   5    0.2406
114   5    0.1834
115   5    0.1440
116   5    0.1201
117   5    0.1089
118   5    0.1081
119   5    0.1173
120   5    0.1383
121   5    0.1737
122   5    0.2254
123   5    0.2930
124   5    0.3726
125   5    0.4547
126   5    0.5288
127   5    0.5862
128   5    0.6213
  1   6    0.4604
  2   6    0.4481
  3   6    0.4171
  4   6    0.3718
  5   6    0.3181
  6   6    0.2636
  7   6    0.2145
  8   6    0.1749
  9   6    0.1472
 10   6    0.1324
 11   6    0.1317
 12   6    0.1476
 13   6    0.1855
 14   6    0.2521
 15   6    0.3527
 16   6    0.4833
 17   6    0.6277
 18   6    0.7614
 19   6    0.8625
 20   6    0.9234
 21   6    0.9515
 22   6    0.9621
 23   6    0.9627
 24   6    0.9540
 25   6    0.9273
 26   6    0.8650
 27   6    0.7583
 28   6    0.6164
 29   6    0.4651
 30   6    0.3306
 31   6    0.2293
 32   6    0.1622
 33   6    0.1218
 34   6    0.0997
 35   6    0.0883
 36   6    0.0826
 37   6    0.0796
 38   6    0.0779
 39   6    0.0771
 40   6    0.0770
 41   6    0.0780
 42   6    0.0811
 43   6    0.0885
 44   6    0.1042
 45   6    0.1348
 46   6    0.1884
 47   6    0.2725
 48   6    0.3909
 49   6    0.5345
 50   6    0.6834
 51   6    0.8107
 52   6    0.8994
 53   6    0.9462
 54   6    0.9659
 55   6    0.9737
 56   6    0.9760
 57   6    0.9749
 58   6    0.9686
 59   6    0.9503
 60   6    0.9029
 61   6    0.8083
 62   6    0.6717
 63   6    0.5161
 64   6    0.3723
 65   6    0.2599
 66   6    0.1846
 67   6    0.1394
 68   6    0.1156
 69   6    0.1055
 70   6    0.1040
 71   6    0.1080
 72   6    0.1161
 73   6    0.1271
 74   6    0.1401
 75   6    0.1535
 76   6    0.1658
 77   6    0.1752
 78   6    0.1806
 79   6    0.1810
 80   6    0.1762
 81   6    0.1670
 82   6    0.1545
 83   6    0.1403
 84   6    0.1261
 85   6    0.1133
 86   6    0.1027
 87   6    0.0946
 88   6    0.0889
 89   6    0.0851
 90   6    0.0828
 91   6    0.0815
 92   6    0.0812
 93   6    0.0817
 94   6    0.0833
 95   6    0.0866
 96   6    0.0929
 97   6    0.1041
 98   6    0.1228
 99   6    0.1516
100   6    0.1921
101   6    0.2438
102   6    0.3036
103   6    0.3650
104   6    0.4197
105   6    0.4597
106   6    0.4796
107   6    0.4770
108   6    0.4522
109   6    0.4083
110   6    0.3513
111   6    0.2895
112   6    0.2313
113   6    0.1824
114   6    0.1452
115   6    0.1199
116   6    0.1048
117   6    0.0976
118   6    0.0970
119   6    0.1026
120   6    0.1156
121   6    0.1379
122   6    0.1710
123   6    0.2151
124   6    0.2681
125   6    0.3255
126   6    0.3802
127   6    0.4244
128   6    0.4523
  1   7    0.3159
  2   7    0.3074
  3   7    0.2865
  4   7    0.2567
  5   7    0.2225
  6   7    0.1886
  7   7    0.1587
  8   7    0.1352
  9   7    0.1194
 10   7    0.1121
 11   7    0.1139
 12   7    0.1275
 13   7    0.1573
 14   7    0.2091
 15   7    0.2881
 16   7    0.3954
 17   7    0.5211
 18   7    0.6487
 19   7    0.7589
 20   7    0.8389
 21   7    0.8879
 22   7    0.9107
 23   7    0.9134
 24   7    0.8961
 25   7    0.8520
 26   7    0.7739
 27   7    0.6623
 28   7    0.5300
 29   7    0.3992
 30   7    0.2879
 31   7    0.2064
 32   7    0.1525
 33   7    0.1199
 34   7    0.1016
 35   7    0.0917
 36   7    0.0864
 37   7    0.0832
 38   7    0.0813
 39   7    0.0801
 40   7    0.0798
 41   7    0.0810
 42   7    0.0851
 43   7    0.0950
 44   7    0.1159
 45   7    0.1559
 46   7    0.2240
 47   7    0.3279
 48   7    0.4671
 49   7    0.6249
 50   7    0.7733
 51   7    0.8842
 52   7    0.9451
 53   7    0.9693
 54   7    0.9779
 55   7    0.9811
 56   7    0.9821
 57   7    0.9817
 58   7    0.9791
 59   7    0.9700
 60   7    0.9418
 61   7    0.8675
 62   7    0.7380
 63   7    0.5754
 64   7    0.4165
 65   7    0.2876
 66   7    0.1992
 67   7    0.1454
 68   7    0.1160
 69   7    0.1020
 70   7    0.0969
 71   7    0.0969
 72   7    0.1001
 73   7    0.1056
 74   7    0.1127
 75   7    0.1207
 76   7    0.1287
 77   7    0.1359
 78   7    0.1412
 79   7    0.1440
 80   7    0.1436
 81   7    0.1402
 82   7    0.1340
 83   7    0.1261
 84   7    0.1172
 85   7    0.1086
 86   7    0.1008
 87   7    0.0943
 88   7    0.0893
 89   7    0.0857
 90   7    0.0832
 91   7    0.0817
 92   7    0.0810
 93   7    0.0810
 94   7    0.0819
 95   7    0.0839
 96   7    0.0877
 97   7    0.0944
 98   7    0.1055
 99   7    0.1226
100   7    0.1470
101   7    0.1786
102   7    0.2154
103   7    0.2539
104   7    0.2893
105   7    0.3159
106   7    0.3294
107   7    0.3274
108   7    0.3103
109   7    0.2810
110   7    0.2443
111   7    0.2056
112   7    0.1697
113   7    0.1399
114   7    0.1176
115   7    0.1027
116   7    0.0937
117   7    0.0895
118   7    0.0891
119   7    0.0923
120   7    0.0999
121   7    0.1130
122   7    0.1327
123   7    0.1594
124   7    0.1919
125   7    0.2276
126   7    0.2625
127   7    0.2915
128   7    0.3103
  1   8    0.2140
  2   8    0.2091
  3   8    0.1968
  4   8    0.1795
  5   8    0.1597
  6   8    0.1403
  7   8    0.1235
  8   8    0.1107
  9   8    0.1025
 10   8    0.0993
 11   8    0.1019
 12   8    0.1122
 13   8    0.1339
 14   8    0.1716
 15   8    0.2295
 16   8    0.3100
 17   8    0.4102
 18   8    0.5187
 19   8    0.6220
 20   8    0.7073
 21   8    0.7663
 22   8    0.7981
 23   8    0.8034
 24   8    0.7818
 25   8    0.7314
 26   8    0.6519
 27   8    0.5499
 28   8    0.4395
 29   8    0.3356
 30   8    0.2509
 31   8    0.1899
 32   8    0.1495
 33   8    0.1246
 34   8    0.1100
 35   8    0.1016
 36   8    0.0963
 37   8    0.0927
 38   8    0.0899
 39   8    0.0878
 40   8    0.0869
 41   8    0.0880
 42   8    0.0930
 43   8    0.1057
 44   8    0.1323
 45   8    0.1817
 46   8    0.2637
 47   8    0.3851
 48   8    0.5388
 49   8    0.7020
 50   8    0.8398
 51   8    0.9276
 52   8    0.9647
 53   8    0.9773
 54   8    0.9816
 55   8    0.9830
 56   8    0.9836
 57   8    0.9835
 58   8    0.9821
 59   8    0.9768
 60   8    0.9576
 61   8    0.8987
 62   8    0.7774
 63   8    0.6134
 64   8    0.4458
 65   8    0.3064
 66   8    0.2094
 67   8    0.1498
 68   8    0.1168
 69   8    0.1005
 70   8    0.0935
 71   8    0.0917
 72   8    0.0927
 73   8    0.0959
 74   8    0.1006
 75   8    0.1067
 76   8    0.1139
 77   8    0.1216
 78   8    0.1291
 79   8    0.1353
 80   8    0.1393
 81   8    0.1406
 82   8    0.1387
 83   8    0.1340
 84   8    0.1270
 85   8    0.1188
 86   8    0.1102
 87   8    0.1022
 88   8    0.0954
 89   8    0.0900
 90   8    0.0861
 91   8    0.0834
 92   8    0.0818
 93   8    0.0810
 94   8    0.0811
 95   8    0.0821
 96   8    0.0842
 97   8    0.0880
 98   8    0.0942
 99   8    0.1037
100   8    0.1173
101   8    0.1350
102   8    0.1559
103   8    0.1780
104   8    0.1983
105   8    0.2136
106   8    0.2213
107   8    0.2200
108   8    0.2097
109   8    0.1925
110   8    0.1711
111   8    0.1488
112   8    0.1284
113   8    0.1117
114   8    0.0994
115   8    0.0911
116   8    0.0862
117   8    0.0839
118   8    0.0836
119   8    0.0855
120   8    0.0897
121   8    0.0970
122   8    0.1079
123   8    0.1229
124   8    0.1415
125   8    0.1621
126   8    0.1824
127   8    0.1995
128   8    0.2106
  1   9    0.1509
  2   9    0.1485
  3   9    0.1420
  4   9    0.1327
  5   9    0.1223
  6   9    0.1121
  7   9    0.1035
  8   9    0.0970
  9   9    0.0930
 10   9    0.0919
 11   9    0.0942
 12   9    0.1014
 13   9    0.1161
 14   9    0.1415
 15   9    0.1812
 16   9    0.2370
 17   9    0.3088
 18   9    0.3915
 19   9    0.4753
 20   9    0.5496
 21   9    0.6063
 22   9    0.6398
 23   9    0.6473
 24   9    0.6282
 25   9    0.5835
 26   9    0.5177
 27   9    0.4388
 28   9    0.3572
 29   9    0.2840
 30   9    0.2265
 31   9    0.1854
 32   9    0.1584
 33   9    0.1415
 34   9    0.1311
 35   9    0.1242
 36   9    0.1190
 37   9    0.1142
 38   9    0.1097
 39   9    0.1058
 40   9    0.1031
 41   9    0.1032
 42   9    0.1086
 43   9    0.1235
 44   9    0.1551
 45   9    0.2127
 46   9    0.3064
 47   9    0.4403
 48   9    0.6015
 49   9    0.7615
 50   9    0.8842
 51   9    0.9495
 52   9    0.9729
 53   9    0.9802
 54   9    0.9826
 55   9    0.9834
 56   9    0.9838
 57   9    0.9837
 58   9    0.9828
 59   9    0.9785
 60   9    0.9620
 61   9    0.9086
 62   9    0.7910
 63   9    0.6270
 64   9    0.4563
 65   9    0.3131
 66   9    0.2128
 67   9    0.1512
 68   9    0.1169
 69   9    0.0998
 70   9    0.0922
 71   9    0.0898
 72   9    0.0904
 73   9    0.0933
 74   9    0.0983
 75   9    0.1056
 76   9    0.1152
 77   9    0.1267
 78   9    0.1393
 79   9    0.1516
 80   9    0.1618
 81   9    0.1684
 82   9    0.1703
 83   9    0.1671
 84   9    0.1594
 85   9    0.1483
 86   9    0.1354
 87   9    0.1222
 88   9    0.1103
 89   9    0.1004
 90   9    0.0928
 91   9    0.0874
 92   9    0.0839
 93   9    0.0819
 94   9    0.0810
 95   9    0.0811
 96   9    0.0820
 97   9    0.0840
 98   9    0.0873
 99   9    0.0924
100   9    0.0995
101   9    0.1087
102   9    0.1196
103   9    0.1311
104   9    0.1418
105   9    0.1497
106   9    0.1536
107   9    0.1526
108   9    0.1468
109   9    0.1374
110   9    0.1258
111   9    0.1140
112   9    0.1032
113   9    0.0945
114   9    0.0881
115   9    0.0837
116   9    0.0811
117   9    0.0799
118   9    0.0798
119   9    0.0809
120   9    0.0833
121   9    0.0872
122   9    0.0931
123   9    0.1011
124   9    0.1110
125   9    0.1221
126   9    0.1332
127   9    0.1426
128   9    0.1489
  1  10    0.1157
  2  10    0.1147
  3  10    0.1117
  4  10    0.1072
  5  10    0.1021
  6  10    0.0972
  7  10    0.0930
  8  10    0.0898
  9  10    0.0880
 10  10    0.0878
 11  10    0.0895
 12  10    0.0943
 13  10    0.1035
 14  10    0.1195
 15  10    0.1448
 16  10    0.1808
 17  10    0.2278
 18  10    0.2835
 19  10    0.3430
 20  10    0.3991
 21  10    0.4442
 22  10    0.4726
 23  10    0.4813
 24  10    0.4696
 25  10    0.4394
 26  10    0.3954
 27  10    0.3446
 28  10    0.2947
 29  10    0.2523
 30  10    0.2206
 31  10    0.1993
 32  10    0.1864
 33  10    0.1789
 34  10    0.1740
 35  10    0.1696
 36  10    0.1645
 37  10    0.1580
 38  10    0.1506
 39  10    0.1430
 40  10    0.1367
 41  10    0.1338
 42  10    0.1376
 43  10    0.1529
 44  10    0.1872
 45  10    0.2500
 46  10    0.3509
 47  10    0.4902
 48  10    0.6517
 49  10    0.8027
 50  10    0.9099
 51  10    0.9597
 52  10    0.9759
 53  10    0.9809
 54  10    0.9826
 55  10    0.9832
 56  10    0.9836
 57  10    0.9835
 58  10    0.9821
 59  10    0.9771
 60  10    0.9585
 61  10    0.9007
 62  10    0.7797
 63  10    0.6153
 64  10    0.4467
 65  10    0.3065
 66  10    0.2088
 67  10    0.1489
 68  10    0.1156
 69  10    0.0991
 70  10    0.0919
 71  10    0.0899
 72  10    0.0913
 73  10    0.0956
 74  10    0.1033
 75  10    0.1149
 76  10    0.1308
 77  10    0.1507
 78  10    0.1730
 79  10    0.1955
 80  10    0.2153
 81  10    0.2295
 82  10    0.2359
 83  10    0.2336
 84  10    0.2229
 85  10    0.2055
 86  10    0.1841
 87  10    0.1612
 88  10    0.1395
 89  10    0.1209
 90  10    0.1062
 91  10    0.0956
 92  10    0.0886
 93  10    0.0842
 94  10    0.0819
 95  10    0.0809
 96  10    0.0809
 97  10    0.0817
 98  10    0.0834
 99  10    0.0860
100  10    0.0896
101  10    0.0942
102  10    0.0995
103  10    0.1051
104  10    0.1102
105  10    0.1138
106  10    0.1154
107  10    0.1146
108  10    0.1114
109  10    0.1064
110  10    0.1005
111  10    0.0945
112  10    0.0890
113  10    0.0846
114  10    0.0813
115  10    0.0790
116  10    0.0776
117  10    0.0770
118  10    0.0770
119  10    0.0777
120  10    0.0792
121  10    0.0814
122  10    0.0847
123  10    0.0890
124  10    0.0942
125  10    0.1001
126  10    0.1059
127  10    0.1109
128  10    0.1144
  1  11    0.0981
  2  11    0.0979
  3  11    0.0966
  4  11    0.0946
  5  11    0.0923
  6  11    0.0900
  7  11    0.0880
  8  11    0.0865
  9  11    0.0856
 10  11    0.0857
 11  11    0.0869
 12  11    0.0898
 13  11    0.0953
 14  11    0.1047
 15  11    0.1196
 16  11    0.1412
 17  11    0.1697
 18  11    0.2040
 19  11    0.2414
 20  11    0.2779
 21  11    0.3089
 22  11    0.3303
 23  11    0.3394
 24  11    0.3360
 25  11    0.3220
 26  11    0.3012
 27  11    0.2786
 28  11    0.2590
 29  11    0.2455
 30  11    0.2392
 31  11    0.2390
 32  11    0.2425
 33  11    0.2470
 34  11    0.2499
 35  11    0.2494
 36  11    0.2447
 37  11    0.2360
 38  11    0.2241
 39  11    0.2107
 40  11    0.1980
 41  11    0.1890
 42  11    0.1876
 43  11    0.1995
 44  11    0.2321
 45  11    0.2950
 46  11    0.3958
 47  11    0.5317
 48  11    0.6861
 49  11    0.8256
 50  11    0.9206
 51  11    0.9624
 52  11    0.9763
 53  11    0.9804
 54  11    0.9820
 55  11    0.9827
 56  11    0.9828
 57  11    0.9822
 58  11    0.9799
 59  11    0.9716
 60  11    0.9450
 61  11    0.8726
 62  11    0.7432
 63  11    0.5792
 64  11    0.4183
 65  11    0.2875
 66  11    0.1979
 67  11    0.1431
 68  11    0.1130
 69  11    0.0982
 70  11    0.0923
 71  11    0.0916
 72  11    0.0949
 73  11    0.1026
 74  11    0.1157
 75  11    0.1356
 76  11    0.1628
 77  11    0.1966
 78  11    0.2346
 79  11    0.2732
 80  11    0.3074
 81  11    0.3325
 82  11    0.3449
 83  11    0.3430
 84  11    0.3274
 85  11    0.3002
 86  11    0.2654
 87  11    0.2273
 88  11    0.1903
 89  11    0.1574
 90  11    0.1307
 91  11    0.1109
 92  11    0.0975
 93  11    0.0891
 94  11    0.0842
 95  11    0.0817
 96  11    0.0807
 97  11    0.0807
 98  11    0.0815
 99  11    0.0829
100  11    0.0848
101  11    0.0871
102  11    0.0898
103  11    0.0924
104  11    0.0947
105  11    0.0961
106  11    0.0965
107  11    0.0957
108  11    0.0937
109  11    0.0909
110  11    0.0877
111  11    0.0845
112  11    0.0815
113  11    0.0791
114  11    0.0772
115  11    0.0759
116  11    0.0752
117  11    0.0748
118  11    0.0750
119  11    0.0755
120  11    0.0765
121  11    0.0781
122  11    0.0801
123  11    0.0827
124  11    0.0857
125  11    0.0890
126  11    0.0923
127  11    0.0951
128  11    0.0972
  1  12    0.0907
  2  12    0.0908
  3  12    0.0903
  4  12    0.0894
  5  12    0.0882
  6  12    0.0870
  7  12    0.0859
  8  12    0.0852
  9  12    0.0847
 10  12    0.0848
 11  12    0.0855
 12  12    0.0871
 13  12    0.0903
 14  12    0.0955
 15  12    0.1037
 16  12    0.1156
 17  12    0.1316
 18  12    0.1511
 19  12    0.1728
 20  12    0.1946
 21  12    0.2139
 22  12    0.2288
 23  12    0.2379
 24  12    0.2417
 25  12    0.2420
 26  12    0.2417
 27  12    0.2442
 28  12    0.2522
 29  12    0.2671
 30  12    0.2878
 31  12    0.3119
 32  12    0.3357
 33  12    0.3555
 34  12    0.3686
 35  12    0.3735
 36  12    0.3699
 37  12    0.3585
 38  12    0.3409
 39  12    0.3193
 40  12    0.2969
 41  12    0.2776
 42  12    0.2662
 43  12    0.2689
 44  12    0.2934
 45  12    0.3481
 46  12    0.4387
 47  12    0.5616
 48  12    0.7013
 49  12    0.8279
 50  12    0.9162
 51  12    0.9577
 52  12    0.9726
 53  12    0.9779
 54  12    0.9798
 55  12    0.9805
 56  12    0.9802
 57  12    0.9783
 58  12    0.9726
 59  12    0.9562
 60  12    0.9121
 61  12    0.8185
 62  12    0.6805
 63  12    0.5217
 64  12    0.3744
 65  12    0.2591
 66  12    0.1817
 67  12    0.1348
 68  12    0.1093
 69  12    0.0973
 70  12    0.0932
 71  12    0.0947
 72  12    0.1013
 73  12    0.1146
 74  12    0.1367
 75  12    0.1696
 76  12    0.2140
 77  12    0.2685
 78  12    0.3291
 79  12    0.3892
 80  12    0.4408
 81  12    0.4778
 82  12    0.4964
 83  12    0.4951
 84  12    0.4744
 85  12    0.4366
 86  12    0.3859
 87  12    0.3279
 88  12    0.2693
 89  12    0.2160
 90  12    0.1715
 91  12    0.1373
 92  12    0.1133
 93  12    0.0980
 94  12    0.0889
 95  12    0.0840
 96  12    0.0817
 97  12    0.0810
 98  12    0.0812
 99  12    0.0821
100  12    0.0834
101  12    0.0849
102  12    0.0866
103  12    0.0880
104  12    0.0891
105  12    0.0896
106  12    0.0894
107  12    0.0884
108  12    0.0868
109  12    0.0847
110  12    0.0824
111  12    0.0801
112  12    0.0781
113  12    0.0764
114  12    0.0751
115  12    0.0742
116  12    0.0737
117  12    0.0735
118  12    0.0737
119  12    0.0742
120  12    0.0751
121  12    0.0764
122  12    0.0780
123  12    0.0800
124  12    0.0822
125  12    0.0845
126  12    0.0867
127  12    0.0886
128  12    0.0900
  1  13    0.0899
  2  13    0.0898
  3  13    0.0893
  4  13    0.0885
  5  13    0.0875
  6  13    0.0866
  7  13    0.0857
  8  13    0.0851
  9  13    0.0847
 10  13    0.0846
 11  13    0.0849
 12  13    0.0858
 13  13    0.0874
 14  13    0.0902
 15  13    0.0944
 16  13    0.1006
 17  13    0.1088
 18  13    0.1191
 19  13    0.1308
 20  13    0.1431
 21  13    0.1548
 22  13    0.1655
 23  13    0.1751
 24  13    0.1848
 25  13    0.1967
 26  13    0.2137
 27  13    0.2389
 28  13    0.2740
 29  13    0.3186
 30  13    0.3695
 31  13    0.4207
 32  13    0.4665
 33  13    0.5024
 34  13    0.5259
 35  13    0.5364
 36  13    0.5345
 37  13    0.5214
 38  13    0.4990
 39  13    0.4698
 40  13    0.4369
 41  13    0.4044
 42  13    0.3780
 43  13    0.3645
 44  13    0.3719
 45  13    0.4077
 46  13    0.4766
 47  13    0.5760
 48  13    0.6935
 49  13    0.8049
 50  13    0.8897
 51  13    0.9382
 52  13    0.9596
 53  13    0.9684
 54  13    0.9720
 55  13    0.9727
 56  13    0.9710
 57  13    0.9652
 58  13    0.9505
 59  13    0.9161
 60  13    0.8453
 61  13    0.7344
 62  13    0.5938
 63  13    0.4484
 64  13    0.3209
 65  13    0.2256
 66  13    0.1627
 67  13    0.1251
 68  13    0.1051
 69  13    0.0964
 70  13    0.0948
 71  13    0.0993
 72  13    0.1110
 73  13    0.1326
 74  13    0.1676
 75  13    0.2186
 76  13    0.2864
 77  13    0.3678
 78  13    0.4542
 79  13    0.5350
 80  13    0.6012
 81  13    0.6470
 82  13    0.6696
 83  13    0.6689
 84  13    0.6454
 85  13    0.6008
 86  13    0.5379
 87  13    0.4621
 88  13    0.3803
 89  13    0.3012
 90  13    0.2328
 91  13    0.1787
 92  13    0.1394
 93  13    0.1133
 94  13    0.0975
 95  13    0.0889
 96  13    0.0846
 97  13    0.0831
 98  13    0.0830
 99  13    0.0840
100  13    0.0855
101  13    0.0872
102  13    0.0890
103  13    0.0904
104  13    0.0913
105  13    0.0915
106  13    0.0909
107  13    0.0895
108  13    0.0875
109  13    0.0852
110  13    0.0827
111  13    0.0803
112  13    0.0782
113  13    0.0764
114  13    0.0750
115  13    0.0741
116  13    0.0736
117  13    0.0734
118  13    0.0737
119  13    0.0744
120  13    0.0754
121  13    0.0768
122  13    0.0786
123  13    0.0806
124  13    0.0827
125  13    0.0848
126  13    0.0868