variables =  "IG"  "JG"  "PHI"
 ZONE I=         128 J=          128
  1   1    0.9629
  2   1    0.9362
  3   1    0.8674
  4   1    0.7473
  5   1    0.5931
  6   1    0.4383
  7   1    0.3101
  8   1    0.2224
  9   1    0.1732
 10   1    0.1567
 11   1    0.1701
 12   1    0.2169
 13   1    0.3045
 14   1    0.4368
 15   1    0.6007
 16   1    0.7653
 17   1    0.8906
 18   1    0.9544
 19   1    0.9758
 20   1    0.9820
 21   1    0.9838
 22   1    0.9842
 23   1    0.9840
 24   1    0.9827
 25   1    0.9782
 26   1    0.9611
 27   1    0.9057
 28   1    0.7855
 29   1    0.6187
 30   1    0.4465
 31   1    0.3031
 32   1    0.2039
 33   1    0.1436
 34   1    0.1107
 35   1    0.0946
 36   1    0.0873
 37   1    0.0844
 38   1    0.0834
 39   1    0.0833
 40   1    0.0835
 41   1    0.0839
 42   1    0.0847
 43   1    0.0861
 44   1    0.0889
 45   1    0.0945
 46   1    0.1052
 47   1    0.1240
 48   1    0.1546
 49   1    0.1996
 50   1    0.2599
 51   1    0.3333
 52   1    0.4127
 53   1    0.4876
 54   1    0.5484
 55   1    0.5882
 56   1    0.6029
 57   1    0.5913
 58   1    0.5544
 59   1    0.4960
 60   1    0.4229
 61   1    0.3445
 62   1    0.2713
 63   1    0.2114
 64   1    0.1677
 65   1    0.1401
 66   1    0.1270
 67   1    0.1264
 68   1    0.1370
 69   1    0.1586
 70   1    0.1908
 71   1    0.2332
 72   1    0.2845
 73   1    0.3425
 74   1    0.4035
 75   1    0.4639
 76   1    0.5200
 77   1    0.5691
 78   1    0.6088
 79   1    0.6367
 80   1    0.6508
 81   1    0.6491
 82   1    0.6296
 83   1    0.5909
 84   1    0.5337
 85   1    0.4619
 86   1    0.3822
 87   1    0.3042
 88   1    0.2368
 89   1    0.1843
 90   1    0.1471
 91   1    0.1233
 92   1    0.1103
 93   1    0.1058
 94   1    0.1098
 95   1    0.1248
 96   1    0.1570
 97   1    0.2153
 98   1    0.3096
 99   1    0.4439
100   1    0.6048
101   1    0.7637
102   1    0.8850
103   1    0.9496
104   1    0.9730
105   1    0.9804
106   1    0.9828
107   1    0.9831
108   1    0.9821
109   1    0.9785
110   1    0.9667
111   1    0.9310
112   1    0.8444
113   1    0.7087
114   1    0.5509
115   1    0.4076
116   1    0.3013
117   1    0.2402
118   1    0.2221
119   1    0.2442
120   1    0.3075
121   1    0.4123
122   1    0.5485
123   1    0.6956
124   1    0.8228
125   1    0.9094
126   1    0.9516
127   1    0.9669
128   1    0.9701
  1   2    0.9751
  2   2    0.9583
  3   2    0.9065
  4   2    0.7964
  5   2    0.6419
  6   2    0.4779
  7   2    0.3381
  8   2    0.2401
  9   2    0.1845
 10   2    0.1648
 11   2    0.1776
 12   2    0.2259
 13   2    0.3171
 14   2    0.4537
 15   2    0.6206
 16   2    0.7843
 17   2    0.9041
 18   2    0.9601
 19   2    0.9779
 20   2    0.9827
 21   2    0.9841
 22   2    0.9843
 23   2    0.9841
 24   2    0.9828
 25   2    0.9781
 26   2    0.9609
 27   2    0.9050
 28   2    0.7836
 29   2    0.6157
 30   2    0.4427
 31   2    0.2992
 32   2    0.2003
 33   2    0.1404
 34   2    0.1078
 35   2    0.0919
 36   2    0.0847
 37   2    0.0817
 38   2    0.0805
 39   2    0.0802
 40   2    0.0803
 41   2    0.0809
 42   2    0.0819
 43   2    0.0841
 44   2    0.0885
 45   2    0.0973
 46   2    0.1138
 47   2    0.1427
 48   2    0.1888
 49   2    0.2554
 50   2    0.3431
 51   2    0.4451
 52   2    0.5486
 53   2    0.6409
 54   2    0.7109
 55   2    0.7537
 56   2    0.7689
 57   2    0.7567
 58   2    0.7171
 59   2    0.6500
 60   2    0.5601
 61   2    0.4579
 62   2    0.3561
 63   2    0.2678
 64   2    0.2007
 65   2    0.1552
 66   2    0.1284
 67   2    0.1164
 68   2    0.1156
 69   2    0.1239
 70   2    0.1403
 71   2    0.1643
 72   2    0.1953
 73   2    0.2322
 74   2    0.2737
 75   2    0.3176
 76   2    0.3614
 77   2    0.4019
 78   2    0.4361
 79   2    0.4612
 80   2    0.4748
 81   2    0.4745
 82   2    0.4593
 83   2    0.4289
 84   2    0.3854
 85   2    0.3330
 86   2    0.2779
 87   2    0.2264
 88   2    0.1828
 89   2    0.1492
 90   2    0.1255
 91   2    0.1106
 92   2    0.1027
 93   2    0.1006
 94   2    0.1048
 95   2    0.1180
 96   2    0.1457
 97   2    0.1957
 98   2    0.2770
 99   2    0.3955
100   2    0.5429
101   2    0.6979
102   2    0.8291
103   2    0.9157
104   2    0.9564
105   2    0.9718
106   2    0.9770
107   2    0.9780
108   2    0.9759
109   2    0.9681
110   2    0.9466
111   2    0.8923
112   2    0.7906
113   2    0.6521
114   2    0.5036
115   2    0.3746
116   2    0.2828
117   2    0.2339
118   2    0.2262
119   2    0.2595
120   2    0.3368
121   2    0.4574
122   2    0.6074
123   2    0.7596
124   2    0.8790
125   2    0.9456
126   2    0.9706
127   2    0.9783
128   2    0.9794
  1   3    0.9791
  2   3    0.9662
  3   3    0.9234
  4   3    0.8207
  5   3    0.6677
  6   3    0.4996
  7   3    0.3538
  8   3    0.2501
  9   3    0.1906
 10   3    0.1684
 11   3    0.1797
 12   3    0.2267
 13   3    0.3165
 14   3    0.4516
 15   3    0.6171
 16   3    0.7802
 17   3    0.9009
 18   3    0.9587
 19   3    0.9773
 20   3    0.9824
 21   3    0.9838
 22   3    0.9841
 23   3    0.9838
 24   3    0.9820
 25   3    0.9759
 26   3    0.9546
 27   3    0.8899
 28   3    0.7617
 29   3    0.5924
 30   3    0.4231
 31   3    0.2852
 32   3    0.1914
 33   3    0.1349
 34   3    0.1045
 35   3    0.0897
 36   3    0.0830
 37   3    0.0801
 38   3    0.0790
 39   3    0.0786
 40   3    0.0788
 41   3    0.0794
 42   3    0.0809
 43   3    0.0839
 44   3    0.0901
 45   3    0.1027
 46   3    0.1264
 47   3    0.1677
 48   3    0.2324
 49   3    0.3243
 50   3    0.4404
 51   3    0.5667
 52   3    0.6864
 53   3    0.7820
 54   3    0.8468
 55   3    0.8826
 56   3    0.8943
 57   3    0.8849
 58   3    0.8518
 59   3    0.7903
 60   3    0.6980
 61   3    0.5804
 62   3    0.4545
 63   3    0.3375
 64   3    0.2439
 65   3    0.1781
 66   3    0.1367
 67   3    0.1141
 68   3    0.1047
 69   3    0.1042
 70   3    0.1102
 71   3    0.1218
 72   3    0.1384
 73   3    0.1596
 74   3    0.1846
 75   3    0.2122
 76   3    0.2410
 77   3    0.2689
 78   3    0.2936
 79   3    0.3127
 80   3    0.3238
 81   3    0.3251
 82   3    0.3156
 83   3    0.2959
 84   3    0.2680
 85   3    0.2353
 86   3    0.2015
 87   3    0.1704
 88   3    0.1441
 89   3    0.1241
 90   3    0.1101
 91   3    0.1013
 92   3    0.0968
 93   3    0.0962
 94   3    0.1000
 95   3    0.1108
 96   3    0.1329
 97   3    0.1732
 98   3    0.2390
 99   3    0.3367
100   3    0.4641
101   3    0.6063
102   3    0.7407
103   3    0.8449
104   3    0.9109
105   3    0.9435
106   3    0.9566
107   3    0.9593
108   3    0.9538
109   3    0.9359
110   3    0.8945
111   3    0.8172
112   3    0.7045
113   3    0.5694
114   3    0.4371
115   3    0.3279
116   3    0.2546
117   3    0.2195
118   3    0.2221
119   3    0.2645
120   3    0.3514
121   3    0.4818
122   3    0.6398
123   3    0.7931
124   3    0.9056
125   3    0.9592
126   3    0.9769
127   3    0.9817
128   3    0.9824
  1   4    0.9794
  2   4    0.9663
  3   4    0.9232
  4   4    0.8205
  5   4    0.6677
  6   4    0.4998
  7   4    0.3542
  8   4    0.2504
  9   4    0.1903
 10   4    0.1669
 11   4    0.1759
 12   4    0.2191
 13   4    0.3027
 14   4    0.4303
 15   4    0.5897
 16   4    0.7523
 17   4    0.8795
 18   4    0.9487
 19   4    0.9733
 20   4    0.9808
 21   4    0.9829
 22   4    0.9833
 23   4    0.9825
 24   4    0.9797
 25   4    0.9699
 26   4    0.9388
 27   4    0.8573
 28   4    0.7196
 29   4    0.5508
 30   4    0.3900
 31   4    0.2630
 32   4    0.1782
 33   4    0.1276
 34   4    0.1007
 35   4    0.0876
 36   4    0.0817
 37   4    0.0791
 38   4    0.0781
 39   4    0.0778
 40   4    0.0780
 41   4    0.0788
 42   4    0.0806
 43   4    0.0846
 44   4    0.0929
 45   4    0.1100
 46   4    0.1423
 47   4    0.1975
 48   4    0.2828
 49   4    0.4007
 50   4    0.5406
 51   4    0.6829
 52   4    0.8025
 53   4    0.8857
 54   4    0.9314
 55   4    0.9510
 56   4    0.9566
 57   4    0.9522
 58   4    0.9343
 59   4    0.8919
 60   4    0.8125
 61   4    0.6961
 62   4    0.5552
 63   4    0.4146
 64   4    0.2945
 65   4    0.2069
 66   4    0.1501
 67   4    0.1172
 68   4    0.1007
 69   4    0.0944
 70   4    0.0944
 71   4    0.0986
 72   4    0.1062
 73   4    0.1170
 74   4    0.1305
 75   4    0.1463
 76   4    0.1635
 77   4    0.1809
 78   4    0.1969
 79   4    0.2099
 80   4    0.2181
 81   4    0.2203
 82   4    0.2159
 83   4    0.2052
 84   4    0.1896
 85   4    0.1710
 86   4    0.1518
 87   4    0.1341
 88   4    0.1192
 89   4    0.1079
 90   4    0.1000
 91   4    0.0950
 92   4    0.0926
 93   4    0.0926
 94   4    0.0958
 95   4    0.1039
 96   4    0.1205
 97   4    0.1507
 98   4    0.2006
 99   4    0.2757
100   4    0.3778
101   4    0.4987
102   4    0.6229
103   4    0.7329
104   4    0.8149
105   4    0.8673
106   4    0.8939
107   4    0.9002
108   4    0.8881
109   4    0.8543
110   4    0.7937
111   4    0.7041
112   4    0.5909
113   4    0.4705
114   4    0.3605
115   4    0.2752
116   4    0.2214
117   4    0.1996
118   4    0.2105
119   4    0.2581
120   4    0.3487
121   4    0.4820
122   4    0.6422
123   4    0.7965
124   4    0.9085
125   4    0.9609
126   4    0.9777
127   4    0.9823
128   4    0.9826
  1   5    0.9753
  2   5    0.9577
  3   5    0.9049
  4   5    0.7943
  5   5    0.6406
  6   5    0.4777
  7   5    0.3387
  8   5    0.2405
  9   5    0.1835
 10   5    0.1604
 11   5    0.1670
 12   5    0.2042
 13   5    0.2777
 14   5    0.3924
 15   5    0.5402
 16   5    0.6990
 17   5    0.8344
 18   5    0.9226
 19   5    0.9616
 20   5    0.9752
 21   5    0.9797
 22   5    0.9805
 23   5    0.9788
 24   5    0.9727
 25   5    0.9546
 26   5    0.9050
 27   5    0.8030
 28   5    0.6569
 29   5    0.4941
 30   5    0.3470
 31   5    0.2356
 32   5    0.1625
 33   5    0.1195
 34   5    0.0968
 35   5    0.0858
 36   5    0.0808
 37   5    0.0785
 38   5    0.0776
 39   5    0.0773
 40   5    0.0776
 41   5    0.0785
 42   5    0.0808
 43   5    0.0858
 44   5    0.0965
 45   5    0.1185
 46   5    0.1599
 47   5    0.2298
 48   5    0.3359
 49   5    0.4762
 50   5    0.6330
 51   5    0.7779
 52   5    0.8844
 53   5    0.9426
 54   5    0.9662
 55   5    0.9747
 56   5    0.9768
 57   5    0.9751
 58   5    0.9675
 59   5    0.9460
 60   5    0.8919
 61   5    0.7895
 62   5    0.6472
 63   5    0.4902
 64   5    0.3478
 65   5    0.2388
 66   5    0.1666
 67   5    0.1236
 68   5    0.1010
 69   5    0.0906
 70   5    0.0870
 71   5    0.0873
 72   5    0.0901
 73   5    0.0950
 74   5    0.1018
 75   5    0.1103
 76   5    0.1200
 77   5    0.1304
 78   5    0.1406
 79   5    0.1495
 80   5    0.1558
 81   5    0.1587
 82   5    0.1576
 83   5    0.1525
 84   5    0.1444
 85   5    0.1343
 86   5    0.1236
 87   5    0.1136
 88   5    0.1052
 89   5    0.0987
 90   5    0.0941
 91   5    0.0912
 92   5    0.0898
 93   5    0.0899
 94   5    0.0922
 95   5    0.0979
 96   5    0.1095
 97   5    0.1307
 98   5    0.1662
 99   5    0.2201
100   5    0.2950
101   5    0.3887
102   5    0.4916
103   5    0.5907
104   5    0.6744
105   5    0.7341
106   5    0.7679
107   5    0.7764
108   5    0.7603
109   5    0.7190
110   5    0.6523
111   5    0.5647
112   5    0.4660
113   5    0.3686
114   5    0.2851
115   5    0.2242
116   5    0.1880
117   5    0.1771
118   5    0.1932
119   5    0.2415
120   5    0.3293
121   5    0.4583
122   5    0.6147
123   5    0.7699
124   5    0.8884
125   5    0.9509
126   5    0.9732
127   5    0.9797
128   5    0.9802
  1   6    0.9611
  2   6    0.9317
  3   6    0.8599
  4   6    0.7396
  5   6    0.5874
  6   6    0.4356
  7   6    0.3096
  8   6    0.2222
  9   6    0.1714
 10   6    0.1502
 11   6    0.1544
 12   6    0.1846
 13   6    0.2455
 14   6    0.3424
 15   6    0.4729
 16   6    0.6207
 17   6    0.7604
 18   6    0.8666
 19   6    0.9295
 20   6    0.9574
 21   6    0.9678
 22   6    0.9701
 23   6    0.9661
 24   6    0.9525
 25   6    0.9172
 26   6    0.8421
 27   6    0.7242
 28   6    0.5766
 29   6    0.4273
 30   6    0.2996
 31   6    0.2068
 32   6    0.1468
 33   6    0.1119
 34   6    0.0936
 35   6    0.0846
 36   6    0.0804
 37   6    0.0784
 38   6    0.0776
 39   6    0.0773
 40   6    0.0776
 41   6    0.0787
 42   6    0.0813
 43   6    0.0873
 44   6    0.1004
 45   6    0.1274
 46   6    0.1778
 47   6    0.2616
 48   6    0.3861
 49   6    0.5432
 50   6    0.7086
 51   6    0.8458
 52   6    0.9310
 53   6    0.9660
 54   6    0.9778
 55   6    0.9815
 56   6    0.9824
 57   6    0.9817
 58   6    0.9784
 59   6    0.9678
 60   6    0.9357
 61   6    0.8553
 62   6    0.7213
 63   6    0.5565
 64   6    0.3977
 65   6    0.2703
 66   6    0.1838
 67   6    0.1316
 68   6    0.1034
 69   6    0.0899
 70   6    0.0842
 71   6    0.0825
 72   6    0.0831
 73   6    0.0853
 74   6    0.0889
 75   6    0.0937
 76   6    0.0997
 77   6    0.1067
 78   6    0.1140
 79   6    0.1210
 80   6    0.1267
 81   6    0.1303
 82   6    0.1312
 83   6    0.1292
 84   6    0.1248
 85   6    0.1187
 86   6    0.1119
 87   6    0.1053
 88   6    0.0995
 89   6    0.0949
 90   6    0.0915
 91   6    0.0893
 92   6    0.0881
 93   6    0.0881
 94   6    0.0895
 95   6    0.0932
 96   6    0.1008
 97   6    0.1147
 98   6    0.1381
 99   6    0.1742
100   6    0.2251
101   6    0.2905
102   6    0.3665
103   6    0.4444
104   6    0.5143
105   6    0.5682
106   6    0.6007
107   6    0.6092
108   6    0.5932
109   6    0.5542
110   6    0.4956
111   6    0.4239
112   6    0.3478
113   6    0.2773
114   6    0.2203
115   6    0.1802
116   6    0.1580
117   6    0.1548
118   6    0.1729
119   6    0.2178
120   6    0.2969
121   6    0.4142
122   6    0.5601
123   6    0.7124
124   6    0.8391
125   6    0.9205
126   6    0.9569
127   6    0.9692
128   6    0.9703
  1   7    0.9185
  2   7    0.8697
  3   7    0.7807
  4   7    0.6556
  5   7    0.5129
  6   7    0.3788
  7   7    0.2716
  8   7    0.1987
  9   7    0.1561
 10   7    0.1379
 11   7    0.1402
 12   7    0.1632
 13   7    0.2106
 14   7    0.2874
 15   7    0.3951
 16   7    0.5240
 17   7    0.6570
 18   7    0.7722
 19   7    0.8557
 20   7    0.9058
 21   7    0.9292
 22   7    0.9350
 23   7    0.9261
 24   7    0.8976
 25   7    0.8394
 26   7    0.7466
 27   7    0.6229
 28   7    0.4861
 29   7    0.3575
 30   7    0.2536
 31   7    0.1803
 32   7    0.1335
 33   7    0.1064
 34   7    0.0920
 35   7    0.0848
 36   7    0.0813
 37   7    0.0795
 38   7    0.0785
 39   7    0.0782
 40   7    0.0783
 41   7    0.0794
 42   7    0.0823
 43   7    0.0892
 44   7    0.1045
 45   7    0.1360
 46   7    0.1940
 47   7    0.2896
 48   7    0.4283
 49   7    0.5965
 50   7    0.7631
 51   7    0.8887
 52   7    0.9531
 53   7    0.9750
 54   7    0.9816
 55   7    0.9834
 56   7    0.9839
 57   7    0.9836
 58   7    0.9819
 59   7    0.9760
 60   7    0.9561
 61   7    0.8957
 62   7    0.7735
 63   7    0.6081
 64   7    0.4386
 65   7    0.2973
 66   7    0.1993
 67   7    0.1393
 68   7    0.1067
 69   7    0.0907
 70   7    0.0837
 71   7    0.0811
 72   7    0.0809
 73   7    0.0822
 74   7    0.0848
 75   7    0.0888
 76   7    0.0941
 77   7    0.1007
 78   7    0.1082
 79   7    0.1158
 80   7    0.1227
 81   7    0.1277
 82   7    0.1301
 83   7    0.1295
 84   7    0.1261
 85   7    0.1206
 86   7    0.1139
 87   7    0.1071
 88   7    0.1009
 89   7    0.0958
 90   7    0.0919
 91   7    0.0893
 92   7    0.0877
 93   7    0.0871
 94   7    0.0877
 95   7    0.0898
 96   7    0.0944
 97   7    0.1028
 98   7    0.1172
 99   7    0.1398
100   7    0.1720
101   7    0.2139
102   7    0.2637
103   7    0.3171
104   7    0.3675
105   7    0.4081
106   7    0.4333
107   7    0.4399
108   7    0.4274
109   7    0.3972
110   7    0.3536
111   7    0.3027
112   7    0.2515
113   7    0.2060
114   7    0.1701
115   7    0.1457
116   7    0.1336
117   7    0.1349
118   7    0.1522
119   7    0.1907
120   7    0.2571
121   7    0.3565
122   7    0.4848
123   7    0.6258
124   7    0.7555
125   7    0.8524
126   7    0.9100
127   7    0.9344
128   7    0.9369
  1   8    0.8234
  2   8    0.7625
  3   8    0.6680
  4   8    0.5495
  5   8    0.4260
  6   8    0.3154
  7   8    0.2306
  8   8    0.1736
  9   8    0.1401
 10   8    0.1254
 11   8    0.1263
 12   8    0.1427
 13   8    0.1774
 14   8    0.2343
 15   8    0.3162
 16   8    0.4202
 17   8    0.5344
 18   8    0.6442
 19   8    0.7348
 20   8    0.7979
 21   8    0.8334
 22   8    0.8438
 23   8    0.8298
 24   8    0.7897
 25   8    0.7209
 26   8    0.6244
 27   8    0.5108
 28   8    0.3956
 29   8    0.2934
 30   8    0.2147
 31   8    0.1600
 32   8    0.1253
 33   8    0.1050
 34   8    0.0940
 35   8    0.0881
 36   8    0.0849
 37   8    0.0829
 38   8    0.0816
 39   8    0.0807
 40   8    0.0805
 41   8    0.0812
 42   8    0.0842
 43   8    0.0916
 44   8    0.1086
 45   8    0.1434
 46   8    0.2071
 47   8    0.3110
 48   8    0.4589
 49   8    0.6331
 50   8    0.7972
 51   8    0.9120
 52   8    0.9627
 53   8    0.9784
 54   8    0.9826
 55   8    0.9840
 56   8    0.9843
 57   8    0.9841
 58   8    0.9831
 59   8    0.9791
 60   8    0.9646
 61   8    0.9165
 62   8    0.8045
 63   8    0.6414
 64   8    0.4662
 65   8    0.3164
 66   8    0.2105
 67   8    0.1454
 68   8    0.1096
 69   8    0.0921
 70   8    0.0844
 71   8    0.0816
 72   8    0.0814
 73   8    0.0831
 74   8    0.0864
 75   8    0.0917
 76   8    0.0991
 77   8    0.1085
 78   8    0.1196
 79   8    0.1311
 80   8    0.1417
 81   8    0.1497
 82   8    0.1539
 83   8    0.1537
 84   8    0.1490
 85   8    0.1410
 86   8    0.1309
 87   8    0.1203
 88   8    0.1104
 89   8    0.1021
 90   8    0.0958
 91   8    0.0913
 92   8    0.0885
 93   8    0.0870
 94   8    0.0866
 95   8    0.0875
 96   8    0.0900
 97   8    0.0949
 98   8    0.1031
 99   8    0.1162
100   8    0.1351
101   8    0.1602
102   8    0.1902
103   8    0.2228
104   8    0.2543
105   8    0.2802
106   8    0.2967
107   8    0.3010
108   8    0.2926
109   8    0.2729
110   8    0.2451
111   8    0.2136
112   8    0.1826
113   8    0.1555
114   8    0.1346
115   8    0.1211
116   8    0.1154
117   8    0.1187
118   8    0.1334
119   8    0.1640
120   8    0.2159
121   8    0.2941
122   8    0.3989
123   8    0.5197
124   8    0.6401
125   8    0.7412
126   8    0.8105
127   8    0.8463
128   8    0.8504
  1   9    0.6822
  2   9    0.6214
  3   9    0.5354
  4   9    0.4362
  5   9    0.3381
  6   9    0.2545
  7   9    0.1920
  8   9    0.1500
  9   9    0.1254
 10   9    0.1143
 11   9    0.1143
 12   9    0.1251
 13   9    0.1488
 14   9    0.1884
 15   9    0.2461
 16   9    0.3220
 17   9    0.4107
 18   9    0.5015
 19   9    0.5831
 20   9    0.6463
 21   9    0.6853
 22   9    0.6979
 23   9    0.6835
 24   9    0.6426
 25   9    0.5773
 26   9    0.4943
 27   9    0.4033
 28   9    0.3159
 29   9    0.2427
 30   9    0.1876
 31   9    0.1497
 32   9    0.1255
 33   9    0.1111
 34   9    0.1028
 35   9    0.0978
 36   9    0.0944
 37   9    0.0917
 38   9    0.0893
 39   9    0.0872
 40   9    0.0858
 41   9    0.0857
 42   9    0.0880
 43   9    0.0954
 44   9    0.1131
 45   9    0.1495
 46   9    0.2160
 47   9    0.3240
 48   9    0.4759
 49   9    0.6520
 50   9    0.8134
 51   9    0.9216
 52   9    0.9662
 53   9    0.9795
 54   9    0.9830
 55   9    0.9840
 56   9    0.9843
 57   9    0.9841
 58   9    0.9834
 59   9    0.9800
 60   9    0.9674
 61   9    0.9238
 62   9    0.8165
 63   9    0.6550
 64   9    0.4779
 65   9    0.3249
 66   9    0.2159
 67   9    0.1486
 68   9    0.1115
 69   9    0.0935
 70   9    0.0857
 71   9    0.0832
 72   9    0.0839
 73   9    0.0871
 74   9    0.0931
 75   9    0.1024
 76   9    0.1153
 77   9    0.1319
 78   9    0.1509
 79   9    0.1706
 80   9    0.1884
 81   9    0.2018
 82   9    0.2087
 83   9    0.2080
 84   9    0.2000
 85   9    0.1859
 86   9    0.1681
 87   9    0.1492
 88   9    0.1314
 89   9    0.1163
 90   9    0.1047
 91   9    0.0965
 92   9    0.0911
 93   9    0.0880
 94   9    0.0864
 95   9    0.0862
 96   9    0.0873
 97   9    0.0898
 98   9    0.0944
 99   9    0.1016
100   9    0.1120
101   9    0.1260
102   9    0.1429
103   9    0.1614
104   9    0.1794
105   9    0.1943
106   9    0.2037
107   9    0.2060
108   9    0.2010
109   9    0.1894
110   9    0.1734
111   9    0.1554
112   9    0.1380
113   9    0.1230
114   9    0.1118
115   9    0.1050
116   9    0.1029
117   9    0.1064
118   9    0.1178
119   9    0.1403
120   9    0.1783
121   9    0.2357
122   9    0.3140
123   9    0.4090
124   9    0.5088
125   9    0.5993
126   9    0.6678
127   9    0.7060
128   9    0.7109
  1  10    0.5233
  2  10    0.4737
  3  10    0.4061
  4  10    0.3313
  5  10    0.2609
  6  10    0.2026
  7  10    0.1593
  8  10    0.1303
  9  10    0.1132
 10  10    0.1053
 11  10    0.1048
 12  10    0.1115
 13  10    0.1265
 14  10    0.1522
 15  10    0.1901
 16  10    0.2407
 17  10    0.3020
 18  10    0.3684
 19  10    0.4315
 20  10    0.4831
 21  10    0.5168
 22  10    0.5291
 23  10    0.5186
 24  10    0.4867
 25  10    0.4374
 26  10    0.3770
 27  10    0.3140
 28  10    0.2568
 29  10    0.2106
 30  10    0.1766
 31  10    0.1536
 32  10    0.1392
 33  10    0.1304
 34  10    0.1247
 35  10    0.1203
 36  10    0.1161
 37  10    0.1116
 38  10    0.1068
 39  10    0.1021
 40  10    0.0980
 41  10    0.0955
 42  10    0.0960
 43  10    0.1021
 44  10    0.1190
 45  10    0.1548
 46  10    0.2207
 47  10    0.3279
 48  10    0.4785
 49  10    0.6529
 50  10    0.8130
 51  10    0.9208
 52  10    0.9657
 53  10    0.9792
 54  10    0.9828
 55  10    0.9839
 56  10    0.9843
 57  10    0.9840
 58  10    0.9832
 59  10    0.9794
 60  10    0.9658
 61  10    0.9199
 62  10    0.8101
 63  10    0.6482
 64  10    0.4726
 65  10    0.3217
 66  10    0.2145
 67  10    0.1484
 68  10    0.1121
 69  10    0.0946
 70  10    0.0875
 71  10    0.0861
 72  10    0.0887
 73  10    0.0952
 74  10    0.1064
 75  10    0.1234
 76  10    0.1468
 77  10    0.1758
 78  10    0.2085
 79  10    0.2416
 80  10    0.2711
 81  10    0.2930
 82  10    0.3040
 83  10    0.3023
 84  10    0.2882
 85  10    0.2640
 86  10    0.2333
 87  10    0.2004
 88  10    0.1691
 89  10    0.1421
 90  10    0.1211
 91  10    0.1062
 92  10    0.0964
 93  10    0.0905
 94  10    0.0873
 95  10    0.0859
 96  10    0.0859
 97  10    0.0870
 98  10    0.0895
 99  10    0.0934
100  10    0.0991
101  10    0.1066
102  10    0.1158
103  10    0.1258
104  10    0.1355
105  10    0.1435
106  10    0.1484
107  10    0.1494
108  10    0.1464
109  10    0.1398
110  10    0.1309
111  10    0.1212
112  10    0.1119
113  10    0.1041
114  10    0.0984
115  10    0.0952
116  10    0.0947
117  10    0.0978
118  10    0.1058
119  10    0.1213
120  10    0.1474
121  10    0.1869
122  10    0.2412
123  10    0.3086
124  10    0.3832
125  10    0.4540
126  10    0.5101
127  10    0.5430
128  10    0.5476
  1  11    0.3809
  2  11    0.3452
  3  11    0.2981
  4  11    0.2477
  5  11    0.2012
  6  11    0.1628
  7  11    0.1344
  8  11    0.1153
  9  11    0.1040
 10  11    0.0986
 11  11    0.0979
 12  11    0.1017
 13  11    0.1106
 14  11    0.1261
 15  11    0.1493
 16  11    0.1806
 17  11    0.2191
 18  11    0.2618
 19  11    0.3042
 20  11    0.3406
 21  11    0.3658
 22  11    0.3765
 23  11    0.3715
 24  11    0.3523
 25  11    0.3225
 26  11    0.2874
 27  11    0.2527
 28  11    0.2231
 29  11    0.2009
 30  11    0.1862
 31  11    0.1779
 32  11    0.1738
 33  11    0.1716
 34  11    0.1694
 35  11    0.1658
 36  11    0.1602
 37  11    0.1525
 38  11    0.1431
 39  11    0.1331
 40  11    0.1236
 41  11    0.1159
 42  11    0.1120
 43  11    0.1145
 44  11    0.1282
 45  11    0.1606
 46  11    0.2220
 47  11    0.3231
 48  11    0.4668
 49  11    0.6359
 50  11    0.7956
 51  11    0.9088
 52  11    0.9606
 53  11    0.9771
 54  11    0.9820
 55  11    0.9834
 56  11    0.9839
 57  11    0.9836
 58  11    0.9821
 59  11    0.9769
 60  11    0.9589
 61  11    0.9029
 62  11    0.7845
 63  11    0.6208
 64  11    0.4503
 65  11    0.3068
 66  11    0.2064
 67  11    0.1448
 68  11    0.1113
 69  11    0.0955
 70  11    0.0898
 71  11    0.0905
 72  11    0.0965
 73  11    0.1087
 74  11    0.1289
 75  11    0.1587
 76  11    0.1983
 77  11    0.2463
 78  11    0.2991
 79  11    0.3514
 80  11    0.3966
 81  11    0.4288
 82  11    0.4443
 83  11    0.4411
 84  11    0.4197
 85  11    0.3823
 86  11    0.3338
 87  11    0.2804
 88  11    0.2289
 89  11    0.1841
 90  11    0.1484
 91  11    0.1226
 92  11    0.1055
 93  11    0.0952
 94  11    0.0894
 95  11    0.0866
 96  11    0.0856
 97  11    0.0859
 98  11    0.0873
 99  11    0.0897
100  11    0.0932
101  11    0.0977
102  11    0.1030
103  11    0.1087
104  11    0.1141
105  11    0.1183
106  11    0.1206
107  11    0.1206
108  11    0.1184
109  11    0.1143
110  11    0.1090
111  11    0.1035
112  11    0.0984
113  11    0.0942
114  11    0.0912
115  11    0.0897
116  11    0.0898
117  11    0.0920
118  11    0.0974
119  11    0.1075
120  11    0.1244
121  11    0.1501
122  11    0.1856
123  11    0.2300
124  11    0.2800
125  11    0.3294
126  11    0.3700
127  11    0.3945
128  11    0.3984
  1  12    0.2743
  2  12    0.2514
  3  12    0.2214
  4  12    0.1894
  5  12    0.1598
  6  12    0.1354
  7  12    0.1173
  8  12    0.1051
  9  12    0.0978
 10  12    0.0941
 11  12    0.0933
 12  12    0.0953
 13  12    0.1002
 14  12    0.1088
 15  12    0.1220
 16  12    0.1400
 17  12    0.1625
 18  12    0.1878
 19  12    0.2133
 20  12    0.2359
 21  12    0.2527
 22  12    0.2616
 23  12    0.2620
 24  12    0.2552
 25  12    0.2439
 26  12    0.2316
 27  12    0.2217
 28  12    0.2166
 29  12    0.2171
 30  12    0.2225
 31  12    0.2307
 32  12    0.2394
 33  12    0.2460
 34  12    0.2487
 35  12    0.2463
 36  12    0.2386
 37  12    0.2259
 38  12    0.2093
 39  12    0.1906
 40  12    0.1715
 41  12    0.1545
 42  12    0.1419
 43  12    0.1369
 44  12    0.1438
 45  12    0.1690
 46  12    0.2215
 47  12    0.3113
 48  12    0.4423
 49  12    0.6010
 50  12    0.7591
 51  12    0.8808
 52  12    0.9469
 53  12    0.9714
 54  12    0.9794
 55  12    0.9819
 56  12    0.9825
 57  12    0.9819
 58  12    0.9791
 59  12    0.9699
 60  12    0.9413
 61  12    0.8668
 62  12    0.7371
 63  12    0.5735
 64  12    0.4129
 65  12    0.2822
 66  12    0.1927
 67  12    0.1384
 68  12    0.1094
 69  12    0.0963
 70  12    0.0930
 71  12    0.0969
 72  12    0.1084
 73  12    0.1296
 74  12    0.1633
 75  12    0.2114
 76  12    0.2737
 77  12    0.3472
 78  12    0.4247
 79  12    0.4967
 80  12    0.5558
 81  12    0.5962
 82  12    0.6149
 83  12    0.6104
 84  12    0.5829
 85  12    0.5341
 86  12    0.4684
 87  12    0.3923
 88  12    0.3150
 89  12    0.2455
 90  12    0.1893
 91  12    0.1479
 92  12    0.1199
 93  12    0.1028
 94  12    0.0933
 95  12    0.0884
 96  12    0.0865
 97  12    0.0863
 98  12    0.0875
 99  12    0.0896
100  12    0.0927
101  12    0.0965
102  12    0.1008
103  12    0.1051
104  12    0.1088
105  12    0.1113
106  12    0.1122
107  12    0.1113
108  12    0.1088
109  12    0.1051
110  12    0.1008
111  12    0.0966
112  12    0.0929
113  12    0.0899
114  12    0.0879
115  12    0.0868
116  12    0.0869
117  12    0.0884
118  12    0.0919
119  12    0.0983
120  12    0.1089
121  12    0.1250
122  12    0.1474
123  12    0.1757
124  12    0.2076
125  12    0.2394
126  12    0.2660
127  12    0.2825
128  12    0.2854
  1  13    0.2088
  2  13    0.1943
  3  13    0.1750
  4  13    0.1543
  5  13    0.1350
  6  13    0.1190
  7  13    0.1071
  8  13    0.0990
  9  13    0.0940
 10  13    0.0913
 11  13    0.0905
 12  13    0.0912
 13  13    0.0938
 14  13    0.0983
 15  13    0.1053
 16  13    0.1149
 17  13    0.1271
 18  13    0.1410
 19  13    0.1555
 20  13    0.1690
 21  13    0.1800
 22  13    0.1878
 23  13    0.1927
 24  13    0.1960
 25  13    0.1999
 26  13    0.2069
 27  13    0.2194
 28  13    0.2383
 29  13    0.2633
 30  13    0.2918
 31  13    0.3204
 32  13    0.3453
 33  13    0.3634
 34  13    0.3726
 35  13    0.3721
 36  13    0.3618
 37  13    0.3426
 38  13    0.3162
 39  13    0.2848
 40  13    0.2515
 41  13    0.2197
 42  13    0.1928
 43  13    0.1746
 44  13    0.1695
 45  13    0.1828
 46  13    0.2219
 47  13    0.2952
 48  13    0.4073
 49  13    0.5495
 50  13    0.7007
 51  13    0.8293
 52  13    0.9151
 53  13    0.9556
 54  13    0.9711
 55  13    0.9766
 56  13    0.9778
 57  13    0.9761
 58  13    0.9694
 59  13    0.9505
 60  13    0.9018
 61  13    0.8049
 62  13    0.6661
 63  13    0.5088
 64  13    0.3637
 65  13    0.2509
 66  13    0.1754
 67  13    0.1303
 68  13    0.1068
 69  13    0.0973
 70  13    0.0973
 71  13    0.1059
 72  13    0.1253
 73  13    0.1591
 74  13    0.2109
 75  13    0.2829
 76  13    0.3734
 77  13    0.4737
 78  13    0.5721
 79  13    0.6579
 80  13    0.7229
 81  13    0.7640
 82  13    0.7818
 83  13    0.7771
 84  13    0.7492
 85  13    0.6970
 86  13    0.6210
 87  13    0.5270
 88  13    0.4252
 89  13    0.3276
 90  13    0.2453
 91  13    0.1833
 92  13    0.1408
 93  13    0.1143
 94  13    0.0994
 95  13    0.0919
 96  13    0.0889
 97  13    0.0887
 98  13    0.0904
 99  13    0.0936
100  13    0.0980
101  13    0.1032
102  13    0.1088
103  13    0.1140
104  13    0.1181
105  13    0.1203
106  13    0.1202
107  13    0.1179
108  13    0.1137
109  13    0.1084
110  13    0.1028
111  13    0.0975
112  13    0.0930
113  13    0.0896
114  13    0.0872
115  13    0.0859
116  13    0.0856
117  13    0.0864
118  13    0.0886
119  13    0.0928
120  13    0.0996
121  13    0.1100
122  13    0.1244
123  13    0.1428
124  13    0.1637
125  13    0.1845
126  13    0.2021