variables =  "IG"  "JG"  "PHI"
 ZONE I=         128 J=          128
  1   1    0.5875
  2   1    0.5634
  3   1    0.5259
  4   1    0.4805
  5   1    0.4325
  6   1    0.3869
  7   1    0.3475
  8   1    0.3164
  9   1    0.2944
 10   1    0.2811
 11   1    0.2761
 12   1    0.2794
 13   1    0.2913
 14   1    0.3128
 15   1    0.3447
 16   1    0.3872
 17   1    0.4390
 18   1    0.4969
 19   1    0.5565
 20   1    0.6117
 21   1    0.6550
 22   1    0.6803
 23   1    0.6838
 24   1    0.6651
 25   1    0.6273
 26   1    0.5760
 27   1    0.5184
 28   1    0.4608
 29   1    0.4078
 30   1    0.3626
 31   1    0.3267
 32   1    0.3003
 33   1    0.2823
 34   1    0.2714
 35   1    0.2662
 36   1    0.2655
 37   1    0.2687
 38   1    0.2749
 39   1    0.2838
 40   1    0.2947
 41   1    0.3069
 42   1    0.3197
 43   1    0.3321
 44   1    0.3433
 45   1    0.3526
 46   1    0.3597
 47   1    0.3647
 48   1    0.3681
 49   1    0.3707
 50   1    0.3734
 51   1    0.3771
 52   1    0.3824
 53   1    0.3897
 54   1    0.3988
 55   1    0.4090
 56   1    0.4191
 57   1    0.4277
 58   1    0.4333
 59   1    0.4344
 60   1    0.4304
 61   1    0.4208
 62   1    0.4061
 63   1    0.3876
 64   1    0.3668
 65   1    0.3454
 66   1    0.3252
 67   1    0.3072
 68   1    0.2922
 69   1    0.2806
 70   1    0.2724
 71   1    0.2676
 72   1    0.2664
 73   1    0.2691
 74   1    0.2760
 75   1    0.2880
 76   1    0.3057
 77   1    0.3297
 78   1    0.3598
 79   1    0.3950
 80   1    0.4330
 81   1    0.4704
 82   1    0.5035
 83   1    0.5283
 84   1    0.5417
 85   1    0.5421
 86   1    0.5297
 87   1    0.5067
 88   1    0.4765
 89   1    0.4428
 90   1    0.4091
 91   1    0.3781
 92   1    0.3518
 93   1    0.3315
 94   1    0.3176
 95   1    0.3101
 96   1    0.3091
 97   1    0.3147
 98   1    0.3271
 99   1    0.3466
100   1    0.3731
101   1    0.4054
102   1    0.4417
103   1    0.4793
104   1    0.5147
105   1    0.5443
106   1    0.5646
107   1    0.5727
108   1    0.5677
109   1    0.5500
110   1    0.5223
111   1    0.4877
112   1    0.4502
113   1    0.4131
114   1    0.3794
115   1    0.3515
116   1    0.3307
117   1    0.3179
118   1    0.3135
119   1    0.3178
120   1    0.3315
121   1    0.3548
122   1    0.3873
123   1    0.4274
124   1    0.4719
125   1    0.5164
126   1    0.5553
127   1    0.5828
128   1    0.5943
  1   2    0.6300
  2   2    0.6008
  3   2    0.5569
  4   2    0.5051
  5   2    0.4515
  6   2    0.4016
  7   2    0.3589
  8   2    0.3259
  9   2    0.3031
 10   2    0.2902
 11   2    0.2868
 12   2    0.2926
 13   2    0.3081
 14   2    0.3340
 15   2    0.3707
 16   2    0.4173
 17   2    0.4717
 18   2    0.5299
 19   2    0.5866
 20   2    0.6350
 21   2    0.6679
 22   2    0.6803
 23   2    0.6703
 24   2    0.6393
 25   2    0.5921
 26   2    0.5353
 27   2    0.4760
 28   2    0.4197
 29   2    0.3703
 30   2    0.3302
 31   2    0.2999
 32   2    0.2788
 33   2    0.2655
 34   2    0.2584
 35   2    0.2565
 36   2    0.2590
 37   2    0.2651
 38   2    0.2745
 39   2    0.2869
 40   2    0.3018
 41   2    0.3184
 42   2    0.3358
 43   2    0.3529
 44   2    0.3684
 45   2    0.3814
 46   2    0.3915
 47   2    0.3986
 48   2    0.4034
 49   2    0.4067
 50   2    0.4096
 51   2    0.4133
 52   2    0.4185
 53   2    0.4255
 54   2    0.4340
 55   2    0.4433
 56   2    0.4519
 57   2    0.4584
 58   2    0.4609
 59   2    0.4582
 60   2    0.4495
 61   2    0.4348
 62   2    0.4151
 63   2    0.3917
 64   2    0.3667
 65   2    0.3420
 66   2    0.3193
 67   2    0.2999
 68   2    0.2840
 69   2    0.2719
 70   2    0.2634
 71   2    0.2581
 72   2    0.2561
 73   2    0.2573
 74   2    0.2622
 75   2    0.2711
 76   2    0.2845
 77   2    0.3031
 78   2    0.3268
 79   2    0.3548
 80   2    0.3857
 81   2    0.4166
 82   2    0.4445
 83   2    0.4662
 84   2    0.4790
 85   2    0.4815
 86   2    0.4737
 87   2    0.4572
 88   2    0.4343
 89   2    0.4082
 90   2    0.3816
 91   2    0.3571
 92   2    0.3363
 93   2    0.3205
 94   2    0.3101
 95   2    0.3054
 96   2    0.3066
 97   2    0.3141
 98   2    0.3281
 99   2    0.3489
100   2    0.3762
101   2    0.4087
102   2    0.4444
103   2    0.4803
104   2    0.5131
105   2    0.5392
106   2    0.5555
107   2    0.5597
108   2    0.5513
109   2    0.5313
110   2    0.5024
111   2    0.4679
112   2    0.4315
113   2    0.3965
114   2    0.3656
115   2    0.3408
116   2    0.3233
117   2    0.3139
118   2    0.3130
119   2    0.3214
120   2    0.3396
121   2    0.3683
122   2    0.4069
123   2    0.4536
124   2    0.5048
125   2    0.5554
126   2    0.5990
127   2    0.6289
128   2    0.6399
  1   3    0.6665
  2   3    0.6323
  3   3    0.5826
  4   3    0.5249
  5   3    0.4666
  6   3    0.4131
  7   3    0.3681
  8   3    0.3338
  9   3    0.3109
 10   3    0.2989
 11   3    0.2973
 12   3    0.3059
 13   3    0.3251
 14   3    0.3550
 15   3    0.3956
 16   3    0.4450
 17   3    0.5002
 18   3    0.5565
 19   3    0.6078
 20   3    0.6470
 21   3    0.6679
 22   3    0.6670
 23   3    0.6442
 24   3    0.6028
 25   3    0.5489
 26   3    0.4897
 27   3    0.4313
 28   3    0.3785
 29   3    0.3344
 30   3    0.3004
 31   3    0.2762
 32   3    0.2602
 33   3    0.2512
 34   3    0.2478
 35   3    0.2490
 36   3    0.2543
 37   3    0.2634
 38   3    0.2761
 39   3    0.2923
 40   3    0.3114
 41   3    0.3329
 42   3    0.3553
 43   3    0.3772
 44   3    0.3971
 45   3    0.4137
 46   3    0.4264
 47   3    0.4353
 48   3    0.4409
 49   3    0.4445
 50   3    0.4473
 51   3    0.4507
 52   3    0.4554
 53   3    0.4620
 54   3    0.4700
 55   3    0.4786
 56   3    0.4861
 57   3    0.4907
 58   3    0.4906
 59   3    0.4844
 60   3    0.4716
 61   3    0.4523
 62   3    0.4278
 63   3    0.3999
 64   3    0.3707
 65   3    0.3427
 66   3    0.3175
 67   3    0.2963
 68   3    0.2794
 69   3    0.2666
 70   3    0.2575
 71   3    0.2517
 72   3    0.2489
 73   3    0.2490
 74   3    0.2520
 75   3    0.2583
 76   3    0.2681
 77   3    0.2820
 78   3    0.3000
 79   3    0.3215
 80   3    0.3456
 81   3    0.3702
 82   3    0.3929
 83   3    0.4110
 84   3    0.4226
 85   3    0.4263
 86   3    0.4220
 87   3    0.4106
 88   3    0.3941
 89   3    0.3748
 90   3    0.3549
 91   3    0.3365
 92   3    0.3211
 93   3    0.3097
 94   3    0.3029
 95   3    0.3011
 96   3    0.3047
 97   3    0.3142
 98   3    0.3299
 99   3    0.3520
100   3    0.3799
101   3    0.4123
102   3    0.4469
103   3    0.4805
104   3    0.5100
105   3    0.5319
106   3    0.5437
107   3    0.5436
108   3    0.5316
109   3    0.5094
110   3    0.4797
111   3    0.4459
112   3    0.4112
113   3    0.3788
114   3    0.3511
115   3    0.3298
116   3    0.3159
117   3    0.3099
118   3    0.3127
119   3    0.3249
120   3    0.3477
121   3    0.3815
122   3    0.4258
123   3    0.4784
124   3    0.5356
125   3    0.5915
126   3    0.6388
127   3    0.6699
128   3    0.6797
  1   4    0.6915
  2   4    0.6531
  3   4    0.5987
  4   4    0.5368
  5   4    0.4752
  6   4    0.4195
  7   4    0.3734
  8   4    0.3390
  9   4    0.3167
 10   4    0.3062
 11   4    0.3067
 12   4    0.3182
 13   4    0.3407
 14   4    0.3741
 15   4    0.4174
 16   4    0.4681
 17   4    0.5222
 18   4    0.5746
 19   4    0.6185
 20   4    0.6472
 21   4    0.6557
 22   4    0.6422
 23   4    0.6085
 24   4    0.5595
 25   4    0.5020
 26   4    0.4429
 27   4    0.3875
 28   4    0.3400
 29   4    0.3023
 30   4    0.2748
 31   4    0.2561
 32   4    0.2449
 33   4    0.2396
 34   4    0.2393
 35   4    0.2433
 36   4    0.2514
 37   4    0.2633
 38   4    0.2794
 39   4    0.2994
 40   4    0.3231
 41   4    0.3494
 42   4    0.3768
 43   4    0.4033
 44   4    0.4271
 45   4    0.4467
 46   4    0.4615
 47   4    0.4714
 48   4    0.4773
 49   4    0.4806
 50   4    0.4827
 51   4    0.4854
 52   4    0.4895
 53   4    0.4956
 54   4    0.5033
 55   4    0.5115
 56   4    0.5184
 57   4    0.5219
 58   4    0.5200
 59   4    0.5113
 60   4    0.4951
 61   4    0.4720
 62   4    0.4433
 63   4    0.4112
 64   4    0.3783
 65   4    0.3469
 66   4    0.3191
 67   4    0.2960
 68   4    0.2778
 69   4    0.2641
 70   4    0.2543
 71   4    0.2479
 72   4    0.2443
 73   4    0.2433
 74   4    0.2449
 75   4    0.2491
 76   4    0.2562
 77   4    0.2664
 78   4    0.2797
 79   4    0.2960
 80   4    0.3143
 81   4    0.3332
 82   4    0.3511
 83   4    0.3658
 84   4    0.3756
 85   4    0.3796
 86   4    0.3775
 87   4    0.3701
 88   4    0.3587
 89   4    0.3450
 90   4    0.3308
 91   4    0.3178
 92   4    0.3072
 93   4    0.2999
 94   4    0.2965
 95   4    0.2976
 96   4    0.3036
 97   4    0.3152
 98   4    0.3327
 99   4    0.3560
100   4    0.3846
101   4    0.4166
102   4    0.4496
103   4    0.4805
104   4    0.5060
105   4    0.5233
106   4    0.5301
107   4    0.5255
108   4    0.5101
109   4    0.4859
110   4    0.4556
111   4    0.4226
112   4    0.3901
113   4    0.3607
114   4    0.3365
115   4    0.3188
116   4    0.3083
117   4    0.3058
118   4    0.3119
119   4    0.3277
120   4    0.3544
121   4    0.3925
122   4    0.4414
123   4    0.4988
124   4    0.5604
125   4    0.6200
126   4    0.6692
127   4    0.7001
128   4    0.7080
  1   5    0.7009
  2   5    0.6594
  3   5    0.6022
  4   5    0.5382
  5   5    0.4754
  6   5    0.4195
  7   5    0.3738
  8   5    0.3405
  9   5    0.3197
 10   5    0.3111
 11   5    0.3140
 12   5    0.3283
 13   5    0.3537
 14   5    0.3897
 15   5    0.4345
 16   5    0.4850
 17   5    0.5365
 18   5    0.5832
 19   5    0.6186
 20   5    0.6365
 21   5    0.6333
 22   5    0.6090
 23   5    0.5671
 24   5    0.5136
 25   5    0.4553
 26   5    0.3984
 27   5    0.3477
 28   5    0.3064
 29   5    0.2753
 30   5    0.2537
 31   5    0.2399
 32   5    0.2326
 33   5    0.2306
 34   5    0.2329
 35   5    0.2394
 36   5    0.2499
 37   5    0.2647
 38   5    0.2840
 39   5    0.3079
 40   5    0.3360
 41   5    0.3669
 42   5    0.3987
 43   5    0.4291
 44   5    0.4559
 45   5    0.4776
 46   5    0.4933
 47   5    0.5032
 48   5    0.5085
 49   5    0.5106
 50   5    0.5116
 51   5    0.5131
 52   5    0.5165
 53   5    0.5223
 54   5    0.5300
 55   5    0.5385
 56   5    0.5456
 57   5    0.5490
 58   5    0.5465
 59   5    0.5364
 60   5    0.5180
 61   5    0.4921
 62   5    0.4602
 63   5    0.4248
 64   5    0.3884
 65   5    0.3540
 66   5    0.3235
 67   5    0.2983
 68   5    0.2785
 69   5    0.2637
 70   5    0.2532
 71   5    0.2460
 72   5    0.2417
 73   5    0.2399
 74   5    0.2403
 75   5    0.2430
 76   5    0.2481
 77   5    0.2557
 78   5    0.2657
 79   5    0.2780
 80   5    0.2920
 81   5    0.3065
 82   5    0.3203
 83   5    0.3318
 84   5    0.3397
 85   5    0.3433
 86   5    0.3423
 87   5    0.3374
 88   5    0.3296
 89   5    0.3202
 90   5    0.3106
 91   5    0.3019
 92   5    0.2953
 93   5    0.2915
 94   5    0.2912
 95   5    0.2950
 96   5    0.3034
 97   5    0.3172
 98   5    0.3365
 99   5    0.3612
100   5    0.3902
101   5    0.4217
102   5    0.4529
103   5    0.4806
104   5    0.5019
105   5    0.5142
106   5    0.5159
107   5    0.5068
108   5    0.4880
109   5    0.4618
110   5    0.4312
111   5    0.3993
112   5    0.3691
113   5    0.3429
114   5    0.3222
115   5    0.3079
116   5    0.3007
117   5    0.3012
118   5    0.3101
119   5    0.3288
120   5    0.3585
121   5    0.3997
122   5    0.4517
123   5    0.5119
124   5    0.5758
125   5    0.6366
126   5    0.6856
127   5    0.7150
128   5    0.7203
  1   6    0.6928
  2   6    0.6495
  3   6    0.5917
  4   6    0.5281
  5   6    0.4666
  6   6    0.4124
  7   6    0.3689
  8   6    0.3378
  9   6    0.3194
 10   6    0.3132
 11   6    0.3185
 12   6    0.3352
 13   6    0.3629
 14   6    0.4005
 15   6    0.4457
 16   6    0.4947
 17   6    0.5424
 18   6    0.5827
 19   6    0.6092
 20   6    0.6170
 21   6    0.6039
 22   6    0.5713
 23   6    0.5242
 24   6    0.4688
 25   6    0.4117
 26   6    0.3586
 27   6    0.3137
 28   6    0.2788
 29   6    0.2537
 30   6    0.2371
 31   6    0.2274
 32   6    0.2233
 33   6    0.2237
 34   6    0.2283
 35   6    0.2369
 36   6    0.2497
 37   6    0.2672
 38   6    0.2897
 39   6    0.3173
 40   6    0.3494
 41   6    0.3843
 42   6    0.4195
 43   6    0.4525
 44   6    0.4809
 45   6    0.5031
 46   6    0.5184
 47   6    0.5271
 48   6    0.5306
 49   6    0.5308
 50   6    0.5300
 51   6    0.5301
 52   6    0.5327
 53   6    0.5382
 54   6    0.5464
 55   6    0.5558
 56   6    0.5642
 57   6    0.5688
 58   6    0.5671
 59   6    0.5572
 60   6    0.5383
 61   6    0.5111
 62   6    0.4772
 63   6    0.4394
 64   6    0.4004
 65   6    0.3632
 66   6    0.3302
 67   6    0.3028
 68   6    0.2813
 69   6    0.2652
 70   6    0.2536
 71   6    0.2457
 72   6    0.2407
 73   6    0.2382
 74   6    0.2378
 75   6    0.2396
 76   6    0.2434
 77   6    0.2494
 78   6    0.2575
 79   6    0.2674
 80   6    0.2785
 81   6    0.2899
 82   6    0.3006
 83   6    0.3094
 84   6    0.3153
 85   6    0.3178
 86   6    0.3170
 87   6    0.3133
 88   6    0.3076
 89   6    0.3009
 90   6    0.2945
 91   6    0.2891
 92   6    0.2856
 93   6    0.2846
 94   6    0.2870
 95   6    0.2933
 96   6    0.3041
 97   6    0.3200
 98   6    0.3413
 99   6    0.3674
100   6    0.3970
101   6    0.4278
102   6    0.4569
103   6    0.4813
104   6    0.4982
105   6    0.5053
106   6    0.5019
107   6    0.4883
108   6    0.4661
109   6    0.4381
110   6    0.4074
111   6    0.3768
112   6    0.3490
113   6    0.3259
114   6    0.3085
115   6    0.2974
116   6    0.2930
117   6    0.2959
118   6    0.3070
119   6    0.3277
120   6    0.3592
121   6    0.4019
122   6    0.4549
123   6    0.5155
124   6    0.5791
125   6    0.6386
126   6    0.6854
127   6    0.7121
128   6    0.7147
  1   7    0.6673
  2   7    0.6239
  3   7    0.5678
  4   7    0.5073
  5   7    0.4493
  6   7    0.3988
  7   7    0.3589
  8   7    0.3312
  9   7    0.3158
 10   7    0.3121
 11   7    0.3198
 12   7    0.3385
 13   7    0.3677
 14   7    0.4061
 15   7    0.4507
 16   7    0.4973
 17   7    0.5405
 18   7    0.5742
 19   7    0.5926
 20   7    0.5918
 21   7    0.5709
 22   7    0.5329
 23   7    0.4831
 24   7    0.4278
 25   7    0.3735
 26   7    0.3252
 27   7    0.2862
 28   7    0.2572
 29   7    0.2371
 30   7    0.2246
 31   7    0.2180
 32   7    0.2164
 33   7    0.2189
 34   7    0.2254
 35   7    0.2360
 36   7    0.2510
 37   7    0.2710
 38   7    0.2965
 39   7    0.3274
 40   7    0.3627
 41   7    0.4004
 42   7    0.4376
 43   7    0.4715
 44   7    0.4997
 45   7    0.5207
 46   7    0.5339
 47   7    0.5400
 48   7    0.5406
 49   7    0.5381
 50   7    0.5349
 51   7    0.5335
 52   7    0.5352
 53   7    0.5408
 54   7    0.5499
 55   7    0.5609
 56   7    0.5715
 57   7    0.5786
 58   7    0.5794
 59   7    0.5715
 60   7    0.5539
 61   7    0.5272
 62   7    0.4930
 63   7    0.4540
 64   7    0.4132
 65   7    0.3739
 66   7    0.3386
 67   7    0.3091
 68   7    0.2857
 69   7    0.2682
 70   7    0.2554
 71   7    0.2467
 72   7    0.2410
 73   7    0.2380
 74   7    0.2372
 75   7    0.2386
 76   7    0.2421
 77   7    0.2476
 78   7    0.2550
 79   7    0.2640
 80   7    0.2738
 81   7    0.2835
 82   7    0.2921
 83   7    0.2987
 84   7    0.3025
 85   7    0.3034
 86   7    0.3015
 87   7    0.2976
 88   7    0.2924
 89   7    0.2871
 90   7    0.2824
 91   7    0.2791
 92   7    0.2778
 93   7    0.2792
 94   7    0.2838
 95   7    0.2924
 96   7    0.3055
 97   7    0.3236
 98   7    0.3469
 99   7    0.3744
100   7    0.4046
101   7    0.4347
102   7    0.4618
103   7    0.4829
104   7    0.4952
105   7    0.4972
106   7    0.4887
107   7    0.4707
108   7    0.4454
109   7    0.4157
110   7    0.3849
111   7    0.3557
112   7    0.3303
113   7    0.3101
114   7    0.2956
115   7    0.2873
116   7    0.2852
117   7    0.2899
118   7    0.3024
119   7    0.3240
120   7    0.3559
121   7    0.3984
122   7    0.4504
123   7    0.5089
124   7    0.5695
125   7    0.6252
126   7    0.6682
127   7    0.6913
128   7    0.6910
  1   8    0.6272
  2   8    0.5856
  3   8    0.5334
  4   8    0.4779
  5   8    0.4252
  6   8    0.3799
  7   8    0.3449
  8   8    0.3213
  9   8    0.3092
 10   8    0.3082
 11   8    0.3179
 12   8    0.3381
 13   8    0.3682
 14   8    0.4065
 15   8    0.4499
 16   8    0.4936
 17   8    0.5323
 18   8    0.5599
 19   8    0.5715
 20   8    0.5641
 21   8    0.5380
 22   8    0.4968
 23   8    0.4463
 24   8    0.3927
 25   8    0.3421
 26   8    0.2989
 27   8    0.2654
 28   8    0.2412
 29   8    0.2251
 30   8    0.2156
 31   8    0.2115
 32   8    0.2118
 33   8    0.2161
 34   8    0.2242
 35   8    0.2366
 36   8    0.2537
 37   8    0.2761
 38   8    0.3043
 39   8    0.3379
 40   8    0.3754
 41   8    0.4145
 42   8    0.4519
 43   8    0.4847
 44   8    0.5107
 45   8    0.5285
 46   8    0.5379
 47   8    0.5400
 48   8    0.5368
 49   8    0.5310
 50   8    0.5253
 51   8    0.5222
 52   8    0.5232
 53   8    0.5291
 54   8    0.5394
 55   8    0.5526
 56   8    0.5663
 57   8    0.5771
 58   8    0.5818
 59   8    0.5778
 60   8    0.5635
 61   8    0.5391
 62   8    0.5062
 63   8    0.4675
 64   8    0.4262
 65   8    0.3855
 66   8    0.3483
 67   8    0.3167
 68   8    0.2915
 69   8    0.2723
 70   8    0.2583
 71   8    0.2487
 72   8    0.2425
 73   8    0.2392
 74   8    0.2384
 75   8    0.2401
 76   8    0.2442
 77   8    0.2505
 78   8    0.2588
 79   8    0.2685
 80   8    0.2787
 81   8    0.2881
 82   8    0.2957
 83   8    0.3004
 84   8    0.3018
 85   8    0.3001
 86   8    0.2959
 87   8    0.2901
 88   8    0.2840
 89   8    0.2783
 90   8    0.2741
 91   8    0.2717
 92   8    0.2718
 93   8    0.2749
 94   8    0.2814
 95   8    0.2920
 96   8    0.3073
 97   8    0.3276
 98   8    0.3529
 99   8    0.3820
100   8    0.4127
101   8    0.4423
102   8    0.4675
103   8    0.4852
104   8    0.4931
105   8    0.4902
106   8    0.4768
107   8    0.4546
108   8    0.4263
109   8    0.3951
110   8    0.3643
111   8    0.3365
112   8    0.3133
113   8    0.2957
114   8    0.2838
115   8    0.2776
116   8    0.2772
117   8    0.2832
118   8    0.2963
119   8    0.3178
120   8    0.3487
121   8    0.3893
122   8    0.4384
123   8    0.4928
124   8    0.5481
125   8    0.5981
126   8    0.6355
127   8    0.6544
128   8    0.6514
  1   9    0.5772
  2   9    0.5390
  3   9    0.4923
  4   9    0.4431
  5   9    0.3969
  6   9    0.3578
  7   9    0.3283
  8   9    0.3092
  9   9    0.3005
 10   9    0.3019
 11   9    0.3133
 12   9    0.3345
 13   9    0.3648
 14   9    0.4026
 15   9    0.4443
 16   9    0.4852
 17   9    0.5198
 18   9    0.5425
 19   9    0.5489
 20   9    0.5370
 21   9    0.5079
 22   9    0.4655
 23   9    0.4157
 24   9    0.3646
 25   9    0.3180
 26   9    0.2796
 27   9    0.2505
 28   9    0.2300
 29   9    0.2169
 30   9    0.2098
 31   9    0.2075
 32   9    0.2094
 33   9    0.2151
 34   9    0.2249
 35   9    0.2391
 36   9    0.2583
 37   9    0.2831
 38   9    0.3136
 39   9    0.3491
 40   9    0.3877
 41   9    0.4264
 42   9    0.4620
 43   9    0.4916
 44   9    0.5133
 45   9    0.5260
 46   9    0.5301
 47   9    0.5272
 48   9    0.5196
 49   9    0.5102
 50   9    0.5021
 51   9    0.4974
 52   9    0.4980
 53   9    0.5043
 54   9    0.5162
 55   9    0.5320
 56   9    0.5492
 57   9    0.5645
 58   9    0.5743
 59   9    0.5756
 60   9    0.5664
 61   9    0.5461
 62   9    0.5163
 63   9    0.4793
 64   9    0.4385
 65   9    0.3972
 66   9    0.3587
 67   9    0.3253
 68   9    0.2982
 69   9    0.2773
 70   9    0.2621
 71   9    0.2516
 72   9    0.2450
 73   9    0.2417
 74   9    0.2416
 75   9    0.2445
 76   9    0.2504
 77   9    0.2592
 78   9    0.2703
 79   9    0.2828
 80   9    0.2952
 81   9    0.3060
 82   9    0.3134
 83   9    0.3164
 84   9    0.3147
 85   9    0.3091
 86   9    0.3007
 87   9    0.2912
 88   9    0.2821
 89   9    0.2745
 90   9    0.2692
 91   9    0.2667
 92   9    0.2674
 93   9    0.2714
 94   9    0.2794
 95   9    0.2917
 96   9    0.3091
 97   9    0.3316
 98   9    0.3589
 99   9    0.3895
100   9    0.4210
101   9    0.4502
102   9    0.4736
103   9    0.4882
104   9    0.4920
105   9    0.4845
106   9    0.4665
107   9    0.4403
108   9    0.4092
109   9    0.3768
110   9    0.3460
111   9    0.3194
112   9    0.2982
113   9    0.2828
114   9    0.2729
115   9    0.2684
116   9    0.2693
117   9    0.2758
118   9    0.2888
119   9    0.3093
120   9    0.3382
121   9    0.3756
122   9    0.4202
123   9    0.4691
124   9    0.5177
125   9    0.5606
126   9    0.5917
127   9    0.6059
128   9    0.6008
  1  10    0.5232
  2  10    0.4893
  3  10    0.4486
  4  10    0.4063
  5  10    0.3672
  6  10    0.3347
  7  10    0.3108
  8  10    0.2961
  9  10    0.2906
 10  10    0.2941
 11  10    0.3068
 12  10    0.3284
 13  10    0.3586
 14  10    0.3954
 15  10    0.4354
 16  10    0.4739
 17  10    0.5053
 18  10    0.5245
 19  10    0.5275
 20  10    0.5131
 21  10    0.4828
 22  10    0.4406
 23  10    0.3924
 24  10    0.3442
 25  10    0.3013
 26  10    0.2667
 27  10    0.2410
 28  10    0.2233
 29  10    0.2123
 30  10    0.2068
 31  10    0.2059
 32  10    0.2092
 33  10    0.2164
 34  10    0.2279
 35  10    0.2441
 36  10    0.2656
 37  10    0.2927
 38  10    0.3252
 39  10    0.3618
 40  10    0.4000
 41  10    0.4365
 42  10    0.4682
 43  10    0.4925
 44  10    0.5079
 45  10    0.5140
 46  10    0.5117
 47  10    0.5032
 48  10    0.4911
 49  10    0.4784
 50  10    0.4680
 51  10    0.4622
 52  10    0.4625
 53  10    0.4696
 54  10    0.4831
 55  10    0.5015
 56  10    0.5225
 57  10    0.5426
 58  10    0.5582
 59  10    0.5657
 60  10    0.5627
 61  10    0.5481
 62  10    0.5227
 63  10    0.4888
 64  10    0.4496
 65  10    0.4086
 66  10    0.3692
 67  10    0.3344
 68  10    0.3055
 69  10    0.2831
 70  10    0.2666
 71  10    0.2553
 72  10    0.2485
 73  10    0.2458
 74  10    0.2470
 75  10    0.2523
 76  10    0.2617
 77  10    0.2751
 78  10    0.2915
 79  10    0.3095
 80  10    0.3266
 81  10    0.3404
 82  10    0.3486
 83  10    0.3497
 84  10    0.3439
 85  10    0.3324
 86  10    0.3174
 87  10    0.3016
 88  10    0.2871
 89  10    0.2755
 90  10    0.2676
 91  10    0.2638
 92  10    0.2641
 93  10    0.2686
 94  10    0.2775
 95  10    0.2913
 96  10    0.3104
 97  10    0.3350
 98  10    0.3642
 99  10    0.3965
100  10    0.4289
101  10    0.4578
102  10    0.4798
103  10    0.4917
104  10    0.4919
105  10    0.4801
106  10    0.4579
107  10    0.4282
108  10    0.3945
109  10    0.3608
110  10    0.3302
111  10    0.3046
112  10    0.2850
113  10    0.2713
114  10    0.2630
115  10    0.2598
116  10    0.2614
117  10    0.2680
118  10    0.2804
119  10    0.2992
120  10    0.3253
121  10    0.3586
122  10    0.3979
123  10    0.4404
124  10    0.4818
125  10    0.5173
126  10    0.5420
127  10    0.5519
128  10    0.5453
  1  11    0.4703
  2  11    0.4407
  3  11    0.4060
  4  11    0.3706
  5  11    0.3385
  6  11    0.3124
  7  11    0.2938
  8  11    0.2831
  9  11    0.2804
 10  11    0.2857
 11  11    0.2992
 12  11    0.3209
 13  11    0.3506
 14  11    0.3864
 15  11    0.4249
 16  11    0.4615
 17  11    0.4908
 18  11    0.5080
 19  11    0.5096
 20  11    0.4944
 21  11    0.4643
 22  11    0.4233
 23  11    0.3771
 24  11    0.3316
 25  11    0.2917
 26  11    0.2598
 27  11    0.2364
 28  11    0.2205
 29  11    0.2109
 30  11    0.2067
 31  11    0.2070
 32  11    0.2117
 33  11    0.2205
 34  11    0.2341
 35  11    0.2527
 36  11    0.2768
 37  11    0.3063
 38  11    0.3404
 39  11    0.3771
 40  11    0.4132
 41  11    0.4457
 42  11    0.4715
 43  11    0.4886
 44  11    0.4961
 45  11    0.4945
 46  11    0.4853
 47  11    0.4711
 48  11    0.4548
 49  11    0.4393
 50  11    0.4272
 51  11    0.4207
 52  11    0.4211
 53  11    0.4290
 54  11    0.4440
 55  11    0.4649
 56  11    0.4894
 57  11    0.5142
 58  11    0.5356
 59  11    0.5498
 60  11    0.5536
 61  11    0.5455
 62  11    0.5256
 63  11    0.4958
 64  11    0.4590
 65  11    0.4191
 66  11    0.3795
 67  11    0.3435
 68  11    0.3131
 69  11    0.2891
 70  11    0.2715
 71  11    0.2596
 72  11    0.2529
 73  11    0.2514
 74  11    0.2550
 75  11    0.2641
 76  11    0.2792
 77  11    0.2998
 78  11    0.3247
 79  11    0.3513
 80  11    0.3760
 81  11    0.3948
 82  11    0.4045
 83  11    0.4034
 84  11    0.3919
 85  11    0.3721
 86  11    0.3476
 87  11    0.3223
 88  11    0.2996
 89  11    0.2816
 90  11    0.2693
 91  11    0.2628
 92  11    0.2618
 93  11    0.2661
 94  11    0.2755
 95  11    0.2903
 96  11    0.3109
 97  11    0.3372
 98  11    0.3684
 99  11    0.4022
100  11    0.4356
101  11    0.4647
102  11    0.4857
103  11    0.4956
104  11    0.4927
105  11    0.4773
106  11    0.4514
107  11    0.4184
108  11    0.3824
109  11    0.3475
110  11    0.3168
111  11    0.2920
112  11    0.2736
113  11    0.2612
114  11    0.2541
115  11    0.2516
116  11    0.2536
117  11    0.2601
118  11    0.2714
119  11    0.2883
120  11    0.3111
121  11    0.3400
122  11    0.3736
123  11    0.4095
124  11    0.4440
125  11    0.4727
126  11    0.4917
127  11    0.4979
128  11    0.4904
  1  12    0.4220
  2  12    0.3965
  3  12    0.3674
  4  12    0.3385
  5  12    0.3128
  6  12    0.2924
  7  12    0.2784
  8  12    0.2711
  9  12    0.2707
 10  12    0.2773
 11  12    0.2913
 12  12    0.3129
 13  12    0.3419
 14  12    0.3768
 15  12    0.4143
 16  12    0.4498
 17  12    0.4783
 18  12    0.4950
 19  12    0.4966
 20  12    0.4822
 21  12    0.4534
 22  12    0.4143
 23  12    0.3702
 24  12    0.3270
 25  12    0.2890
 26  12    0.2588
 27  12    0.2366
 28  12    0.2217
 29  12    0.2131
 30  12    0.2098
 31  12    0.2113
 32  12    0.2175
 33  12    0.2285
 34  12    0.2447
 35  12    0.2663
 36  12    0.2935
 37  12    0.3255
 38  12    0.3607
 39  12    0.3963
 40  12    0.4289
 41  12    0.4554
 42  12    0.4734
 43  12    0.4816
 44  12    0.4801
 45  12    0.4702
 46  12    0.4541
 47  12    0.4346
 48  12    0.4147
 49  12    0.3971
 50  12    0.3841
 51  12    0.3774
 52  12    0.3781
 53  12    0.3867
 54  12    0.4030
 55  12    0.4260
 56  12    0.4536
 57  12    0.4826
 58  12    0.5094
 59  12    0.5299
 60  12    0.5407
 61  12    0.5394
 62  12    0.5255
 63  12    0.5003
 64  12    0.4667
 65  12    0.4283
 66  12    0.3889
 67  12    0.3521
 68  12    0.3204
 69  12    0.2951
 70  12    0.2765
 71  12    0.2642
 72  12    0.2582
 73  12    0.2584
 74  12    0.2655
 75  12    0.2803
 76  12    0.3034
 77  12    0.3344
 78  12    0.3712
 79  12    0.4097
 80  12    0.4445
 81  12    0.4702
 82  12    0.4822
 83  12    0.4786
 84  12    0.4598
 85  12    0.4293
 86  12    0.3922
 87  12    0.3541
 88  12    0.3199
 89  12    0.2929
 90  12    0.2742
 91  12    0.2636
 92  12    0.2604
 93  12    0.2636
 94  12    0.2729
 95  12    0.2884
 96  12    0.3101
 97  12    0.3378
 98  12    0.3707
 99  12    0.4062
100  12    0.4408
101  12    0.4705
102  12    0.4912
103  12    0.4997
104  12    0.4946
105  12    0.4762
106  12    0.4472
107  12    0.4113
108  12    0.3731
109  12    0.3370
110  12    0.3060
111  12    0.2816
112  12    0.2639
113  12    0.2524
114  12    0.2460
115  12    0.2441
116  12    0.2462
117  12    0.2522
118  12    0.2624
119  12    0.2772
120  12    0.2969
121  12    0.3214
122  12    0.3496
123  12    0.3794
124  12    0.4076
125  12    0.4304
126  12    0.4446
127  12    0.4481
128  12    0.4401
  1  13    0.3810
  2  13    0.3592
  3  13    0.3350
  4  13    0.3116
  5  13    0.2912
  6  13    0.2756
  7  13    0.2653
  8  13    0.2606
  9  13    0.2619
 10  13    0.2695
 11  13    0.2837
 12  13    0.3051
 13  13    0.3335
 14  13    0.3677
 15  13    0.4047
 16  13    0.4401
 17  13    0.4689
 18  13    0.4865
 19  13    0.4896
 20  13    0.4772
 21  13    0.4507
 22  13    0.4139
 23  13    0.3719
 24  13    0.3302
 25  13    0.2933
 26  13    0.2637
 27  13    0.2418
 28  13    0.2273
 29  13    0.2191
 30  13    0.2167
 31  13    0.2197
 32  13    0.2279
 33  13    0.2417
 34  13    0.2614
 35  13    0.2869
 36  13    0.3178
 37  13    0.3524
 38  13    0.3880
 39  13    0.4212
 40  13    0.4485
 41  13    0.4671
 42  13    0.4756
 43  13    0.4737
 44  13    0.4625
 45  13    0.4441
 46  13    0.4214
 47  13    0.3974
 48  13    0.3749
 49  13    0.3562
 50  13    0.3430
 51  13    0.3367
 52  13    0.3378
 53  13    0.3470
 54  13    0.3641
 55  13    0.3884
 56  13    0.4182
 57  13    0.4508
 58  13    0.4822
 59  13    0.5085
 60  13    0.5257
 61  13    0.5309
 62  13    0.5230
 63  13    0.5027
 64  13    0.4725
 65  13    0.4360
 66  13    0.3972
 67  13    0.3599
 68  13    0.3271
 69  13    0.3007
 70  13    0.2812
 71  13    0.2689
 72  13    0.2638
 73  13    0.2666
 74  13    0.2783
 75  13    0.3005
 76  13    0.3340
 77  13    0.3782
 78  13    0.4297
 79  13    0.4828
 80  13    0.5300
 81  13    0.5641
 82  13    0.5793
 83  13    0.5728
 84  13    0.5456
 85  13    0.5023
 86  13    0.4500
 87  13    0.3962
 88  13    0.3477
 89  13    0.3090
 90  13    0.2820
 91  13    0.2660
 92  13    0.2595
 93  13    0.2610
 94  13    0.2698
 95  13    0.2853
 96  13    0.3076
 97  13    0.3365
 98  13    0.3707
 99  13    0.4078
100  13    0.4440
101  13    0.4749
102  13    0.4960
103  13    0.5042
104  13    0.4977
105  13    0.4773
106  13    0.4457
107  13    0.4073
108  13    0.3670
109  13    0.3294
110  13    0.2977
111  13    0.2733
112  13    0.2559
113  13    0.2448
114  13    0.2388
115  13    0.2371
116  13    0.2391
117  13    0.2446
118  13    0.2537
119  13    0.2666
120  13    0.2835
121  13    0.3042
122  13    0.3278
123  13    0.3524
124  13    0.3752
125  13    0.3933
126  13    0.4039