variables =  "IG"  "JG"  "PHI"
 ZONE I=         128 J=          128
  1   1    0.4260
  2   1    0.4256
  3   1    0.4235
  4   1    0.4197
  5   1    0.4145
  6   1    0.4084
  7   1    0.4019
  8   1    0.3955
  9   1    0.3897
 10   1    0.3851
 11   1    0.3821
 12   1    0.3809
 13   1    0.3816
 14   1    0.3844
 15   1    0.3891
 16   1    0.3954
 17   1    0.4028
 18   1    0.4110
 19   1    0.4191
 20   1    0.4265
 21   1    0.4326
 22   1    0.4368
 23   1    0.4387
 24   1    0.4382
 25   1    0.4352
 26   1    0.4299
 27   1    0.4230
 28   1    0.4149
 29   1    0.4062
 30   1    0.3977
 31   1    0.3898
 32   1    0.3832
 33   1    0.3780
 34   1    0.3745
 35   1    0.3728
 36   1    0.3726
 37   1    0.3739
 38   1    0.3764
 39   1    0.3796
 40   1    0.3833
 41   1    0.3870
 42   1    0.3903
 43   1    0.3932
 44   1    0.3953
 45   1    0.3966
 46   1    0.3973
 47   1    0.3974
 48   1    0.3972
 49   1    0.3969
 50   1    0.3968
 51   1    0.3971
 52   1    0.3979
 53   1    0.3992
 54   1    0.4010
 55   1    0.4031
 56   1    0.4053
 57   1    0.4074
 58   1    0.4090
 59   1    0.4099
 60   1    0.4098
 61   1    0.4087
 62   1    0.4066
 63   1    0.4034
 64   1    0.3995
 65   1    0.3950
 66   1    0.3903
 67   1    0.3857
 68   1    0.3815
 69   1    0.3781
 70   1    0.3756
 71   1    0.3742
 72   1    0.3740
 73   1    0.3751
 74   1    0.3774
 75   1    0.3808
 76   1    0.3852
 77   1    0.3903
 78   1    0.3959
 79   1    0.4016
 80   1    0.4070
 81   1    0.4119
 82   1    0.4160
 83   1    0.4189
 84   1    0.4205
 85   1    0.4208
 86   1    0.4198
 87   1    0.4175
 88   1    0.4143
 89   1    0.4103
 90   1    0.4059
 91   1    0.4015
 92   1    0.3973
 93   1    0.3936
 94   1    0.3908
 95   1    0.3890
 96   1    0.3883
 97   1    0.3888
 98   1    0.3904
 99   1    0.3931
100   1    0.3967
101   1    0.4009
102   1    0.4054
103   1    0.4099
104   1    0.4140
105   1    0.4174
106   1    0.4198
107   1    0.4210
108   1    0.4209
109   1    0.4195
110   1    0.4169
111   1    0.4132
112   1    0.4089
113   1    0.4043
114   1    0.3996
115   1    0.3954
116   1    0.3918
117   1    0.3893
118   1    0.3881
119   1    0.3882
120   1    0.3896
121   1    0.3925
122   1    0.3965
123   1    0.4013
124   1    0.4067
125   1    0.4122
126   1    0.4173
127   1    0.4216
128   1    0.4246
  1   2    0.4289
  2   2    0.4281
  3   2    0.4256
  4   2    0.4215
  5   2    0.4162
  6   2    0.4101
  7   2    0.4037
  8   2    0.3976
  9   2    0.3923
 10   2    0.3883
 11   2    0.3860
 12   2    0.3854
 13   2    0.3869
 14   2    0.3902
 15   2    0.3953
 16   2    0.4018
 17   2    0.4091
 18   2    0.4168
 19   2    0.4241
 20   2    0.4304
 21   2    0.4351
 22   2    0.4377
 23   2    0.4379
 24   2    0.4355
 25   2    0.4309
 26   2    0.4243
 27   2    0.4162
 28   2    0.4073
 29   2    0.3982
 30   2    0.3896
 31   2    0.3820
 32   2    0.3758
 33   2    0.3714
 34   2    0.3687
 35   2    0.3679
 36   2    0.3688
 37   2    0.3711
 38   2    0.3746
 39   2    0.3789
 40   2    0.3836
 41   2    0.3882
 42   2    0.3925
 43   2    0.3961
 44   2    0.3989
 45   2    0.4008
 46   2    0.4019
 47   2    0.4024
 48   2    0.4025
 49   2    0.4024
 50   2    0.4024
 51   2    0.4027
 52   2    0.4034
 53   2    0.4046
 54   2    0.4063
 55   2    0.4081
 56   2    0.4100
 57   2    0.4117
 58   2    0.4128
 59   2    0.4131
 60   2    0.4124
 61   2    0.4106
 62   2    0.4077
 63   2    0.4038
 64   2    0.3992
 65   2    0.3940
 66   2    0.3886
 67   2    0.3834
 68   2    0.3787
 69   2    0.3747
 70   2    0.3718
 71   2    0.3700
 72   2    0.3695
 73   2    0.3702
 74   2    0.3722
 75   2    0.3754
 76   2    0.3796
 77   2    0.3845
 78   2    0.3899
 79   2    0.3955
 80   2    0.4009
 81   2    0.4059
 82   2    0.4100
 83   2    0.4130
 84   2    0.4148
 85   2    0.4152
 86   2    0.4144
 87   2    0.4124
 88   2    0.4094
 89   2    0.4057
 90   2    0.4017
 91   2    0.3976
 92   2    0.3937
 93   2    0.3905
 94   2    0.3880
 95   2    0.3866
 96   2    0.3863
 97   2    0.3872
 98   2    0.3892
 99   2    0.3923
100   2    0.3961
101   2    0.4005
102   2    0.4052
103   2    0.4098
104   2    0.4138
105   2    0.4171
106   2    0.4194
107   2    0.4204
108   2    0.4201
109   2    0.4184
110   2    0.4156
111   2    0.4119
112   2    0.4076
113   2    0.4030
114   2    0.3986
115   2    0.3947
116   2    0.3916
117   2    0.3896
118   2    0.3889
119   2    0.3896
120   2    0.3917
121   2    0.3951
122   2    0.3995
123   2    0.4048
124   2    0.4104
125   2    0.4160
126   2    0.4211
127   2    0.4252
128   2    0.4279
  1   3    0.4312
  2   3    0.4300
  3   3    0.4270
  4   3    0.4226
  5   3    0.4171
  6   3    0.4110
  7   3    0.4048
  8   3    0.3991
  9   3    0.3944
 10   3    0.3910
 11   3    0.3894
 12   3    0.3896
 13   3    0.3917
 14   3    0.3956
 15   3    0.4010
 16   3    0.4076
 17   3    0.4147
 18   3    0.4218
 19   3    0.4282
 20   3    0.4332
 21   3    0.4364
 22   3    0.4372
 23   3    0.4356
 24   3    0.4315
 25   3    0.4253
 26   3    0.4174
 27   3    0.4084
 28   3    0.3989
 29   3    0.3896
 30   3    0.3812
 31   3    0.3740
 32   3    0.3685
 33   3    0.3649
 34   3    0.3632
 35   3    0.3634
 36   3    0.3655
 37   3    0.3689
 38   3    0.3736
 39   3    0.3790
 40   3    0.3847
 41   3    0.3903
 42   3    0.3953
 43   3    0.3997
 44   3    0.4030
 45   3    0.4054
 46   3    0.4068
 47   3    0.4075
 48   3    0.4077
 49   3    0.4077
 50   3    0.4077
 51   3    0.4080
 52   3    0.4087
 53   3    0.4098
 54   3    0.4113
 55   3    0.4129
 56   3    0.4145
 57   3    0.4158
 58   3    0.4165
 59   3    0.4163
 60   3    0.4151
 61   3    0.4127
 62   3    0.4091
 63   3    0.4045
 64   3    0.3992
 65   3    0.3934
 66   3    0.3874
 67   3    0.3816
 68   3    0.3764
 69   3    0.3720
 70   3    0.3686
 71   3    0.3665
 72   3    0.3656
 73   3    0.3661
 74   3    0.3678
 75   3    0.3707
 76   3    0.3746
 77   3    0.3794
 78   3    0.3846
 79   3    0.3900
 80   3    0.3953
 81   3    0.4001
 82   3    0.4042
 83   3    0.4072
 84   3    0.4090
 85   3    0.4096
 86   3    0.4089
 87   3    0.4071
 88   3    0.4044
 89   3    0.4010
 90   3    0.3972
 91   3    0.3935
 92   3    0.3901
 93   3    0.3872
 94   3    0.3852
 95   3    0.3843
 96   3    0.3844
 97   3    0.3858
 98   3    0.3882
 99   3    0.3916
100   3    0.3957
101   3    0.4003
102   3    0.4051
103   3    0.4096
104   3    0.4136
105   3    0.4167
106   3    0.4187
107   3    0.4194
108   3    0.4188
109   3    0.4169
110   3    0.4139
111   3    0.4101
112   3    0.4058
113   3    0.4014
114   3    0.3973
115   3    0.3938
116   3    0.3912
117   3    0.3898
118   3    0.3897
119   3    0.3911
120   3    0.3938
121   3    0.3977
122   3    0.4027
123   3    0.4082
124   3    0.4141
125   3    0.4197
126   3    0.4246
127   3    0.4283
128   3    0.4306
  1   4    0.4326
  2   4    0.4308
  3   4    0.4274
  4   4    0.4227
  5   4    0.4171
  6   4    0.4110
  7   4    0.4051
  8   4    0.3998
  9   4    0.3956
 10   4    0.3929
 11   4    0.3920
 12   4    0.3929
 13   4    0.3957
 14   4    0.4001
 15   4    0.4059
 16   4    0.4125
 17   4    0.4193
 18   4    0.4257
 19   4    0.4311
 20   4    0.4348
 21   4    0.4363
 22   4    0.4355
 23   4    0.4321
 24   4    0.4264
 25   4    0.4188
 26   4    0.4098
 27   4    0.4000
 28   4    0.3901
 29   4    0.3808
 30   4    0.3727
 31   4    0.3662
 32   4    0.3615
 33   4    0.3588
 34   4    0.3583
 35   4    0.3597
 36   4    0.3628
 37   4    0.3675
 38   4    0.3733
 39   4    0.3798
 40   4    0.3864
 41   4    0.3929
 42   4    0.3987
 43   4    0.4035
 44   4    0.4073
 45   4    0.4100
 46   4    0.4116
 47   4    0.4123
 48   4    0.4125
 49   4    0.4125
 50   4    0.4124
 51   4    0.4126
 52   4    0.4132
 53   4    0.4143
 54   4    0.4156
 55   4    0.4171
 56   4    0.4186
 57   4    0.4196
 58   4    0.4200
 59   4    0.4194
 60   4    0.4177
 61   4    0.4148
 62   4    0.4107
 63   4    0.4055
 64   4    0.3996
 65   4    0.3932
 66   4    0.3866
 67   4    0.3804
 68   4    0.3747
 69   4    0.3699
 70   4    0.3662
 71   4    0.3637
 72   4    0.3626
 73   4    0.3628
 74   4    0.3643
 75   4    0.3670
 76   4    0.3707
 77   4    0.3752
 78   4    0.3802
 79   4    0.3854
 80   4    0.3905
 81   4    0.3952
 82   4    0.3991
 83   4    0.4020
 84   4    0.4038
 85   4    0.4044
 86   4    0.4037
 87   4    0.4020
 88   4    0.3995
 89   4    0.3963
 90   4    0.3929
 91   4    0.3895
 92   4    0.3865
 93   4    0.3842
 94   4    0.3827
 95   4    0.3822
 96   4    0.3829
 97   4    0.3846
 98   4    0.3875
 99   4    0.3912
100   4    0.3956
101   4    0.4003
102   4    0.4051
103   4    0.4096
104   4    0.4134
105   4    0.4162
106   4    0.4179
107   4    0.4182
108   4    0.4172
109   4    0.4150
110   4    0.4118
111   4    0.4079
112   4    0.4037
113   4    0.3994
114   4    0.3956
115   4    0.3925
116   4    0.3905
117   4    0.3897
118   4    0.3903
119   4    0.3923
120   4    0.3956
121   4    0.4001
122   4    0.4055
123   4    0.4114
124   4    0.4173
125   4    0.4228
126   4    0.4275
127   4    0.4308
128   4    0.4326
  1   5    0.4330
  2   5    0.4306
  3   5    0.4267
  4   5    0.4217
  5   5    0.4159
  6   5    0.4099
  7   5    0.4042
  8   5    0.3993
  9   5    0.3958
 10   5    0.3938
 11   5    0.3936
 12   5    0.3953
 13   5    0.3987
 14   5    0.4036
 15   5    0.4096
 16   5    0.4162
 17   5    0.4227
 18   5    0.4284
 19   5    0.4328
 20   5    0.4352
 21   5    0.4352
 22   5    0.4327
 23   5    0.4277
 24   5    0.4206
 25   5    0.4117
 26   5    0.4018
 27   5    0.3915
 28   5    0.3814
 29   5    0.3724
 30   5    0.3647
 31   5    0.3589
 32   5    0.3552
 33   5    0.3536
 34   5    0.3542
 35   5    0.3567
 36   5    0.3611
 37   5    0.3669
 38   5    0.3738
 39   5    0.3813
 40   5    0.3888
 41   5    0.3960
 42   5    0.4023
 43   5    0.4076
 44   5    0.4116
 45   5    0.4143
 46   5    0.4159
 47   5    0.4165
 48   5    0.4166
 49   5    0.4164
 50   5    0.4162
 51   5    0.4163
 52   5    0.4168
 53   5    0.4177
 54   5    0.4190
 55   5    0.4205
 56   5    0.4218
 57   5    0.4227
 58   5    0.4229
 59   5    0.4221
 60   5    0.4201
 61   5    0.4168
 62   5    0.4123
 63   5    0.4067
 64   5    0.4003
 65   5    0.3934
 66   5    0.3864
 67   5    0.3797
 68   5    0.3737
 69   5    0.3686
 70   5    0.3646
 71   5    0.3619
 72   5    0.3605
 73   5    0.3606
 74   5    0.3619
 75   5    0.3644
 76   5    0.3679
 77   5    0.3722
 78   5    0.3770
 79   5    0.3820
 80   5    0.3869
 81   5    0.3914
 82   5    0.3951
 83   5    0.3979
 84   5    0.3995
 85   5    0.4000
 86   5    0.3993
 87   5    0.3976
 88   5    0.3951
 89   5    0.3922
 90   5    0.3890
 91   5    0.3860
 92   5    0.3834
 93   5    0.3815
 94   5    0.3805
 95   5    0.3806
 96   5    0.3817
 97   5    0.3840
 98   5    0.3872
 99   5    0.3913
100   5    0.3959
101   5    0.4007
102   5    0.4055
103   5    0.4098
104   5    0.4133
105   5    0.4157
106   5    0.4169
107   5    0.4167
108   5    0.4153
109   5    0.4127
110   5    0.4092
111   5    0.4052
112   5    0.4010
113   5    0.3969
114   5    0.3934
115   5    0.3908
116   5    0.3893
117   5    0.3892
118   5    0.3904
119   5    0.3931
120   5    0.3970
121   5    0.4020
122   5    0.4078
123   5    0.4138
124   5    0.4198
125   5    0.4251
126   5    0.4295
127   5    0.4323
128   5    0.4335
  1   6    0.4321
  2   6    0.4291
  3   6    0.4248
  4   6    0.4194
  5   6    0.4134
  6   6    0.4075
  7   6    0.4021
  8   6    0.3977
  9   6    0.3948
 10   6    0.3935
 11   6    0.3941
 12   6    0.3965
 13   6    0.4005
 14   6    0.4059
 15   6    0.4122
 16   6    0.4187
 17   6    0.4249
 18   6    0.4299
 19   6    0.4333
 20   6    0.4344
 21   6    0.4331
 22   6    0.4291
 23   6    0.4227
 24   6    0.4144
 25   6    0.4045
 26   6    0.3939
 27   6    0.3833
 28   6    0.3733
 29   6    0.3646
 30   6    0.3576
 31   6    0.3526
 32   6    0.3499
 33   6    0.3494
 34   6    0.3511
 35   6    0.3548
 36   6    0.3603
 37   6    0.3673
 38   6    0.3751
 39   6    0.3835
 40   6    0.3917
 41   6    0.3994
 42   6    0.4061
 43   6    0.4115
 44   6    0.4155
 45   6    0.4181
 46   6    0.4194
 47   6    0.4198
 48   6    0.4195
 49   6    0.4191
 50   6    0.4187
 51   6    0.4186
 52   6    0.4190
 53   6    0.4199
 54   6    0.4212
 55   6    0.4227
 56   6    0.4241
 57   6    0.4250
 58   6    0.4251
 59   6    0.4242
 60   6    0.4221
 61   6    0.4186
 62   6    0.4138
 63   6    0.4079
 64   6    0.4012
 65   6    0.3939
 66   6    0.3867
 67   6    0.3797
 68   6    0.3734
 69   6    0.3680
 70   6    0.3639
 71   6    0.3610
 72   6    0.3595
 73   6    0.3594
 74   6    0.3607
 75   6    0.3631
 76   6    0.3665
 77   6    0.3707
 78   6    0.3754
 79   6    0.3802
 80   6    0.3849
 81   6    0.3891
 82   6    0.3926
 83   6    0.3951
 84   6    0.3965
 85   6    0.3967
 86   6    0.3959
 87   6    0.3941
 88   6    0.3917
 89   6    0.3888
 90   6    0.3859
 91   6    0.3831
 92   6    0.3809
 93   6    0.3795
 94   6    0.3789
 95   6    0.3795
 96   6    0.3811
 97   6    0.3838
 98   6    0.3875
 99   6    0.3918
100   6    0.3966
101   6    0.4015
102   6    0.4062
103   6    0.4102
104   6    0.4133
105   6    0.4152
106   6    0.4158
107   6    0.4151
108   6    0.4131
109   6    0.4101
110   6    0.4062
111   6    0.4020
112   6    0.3977
113   6    0.3938
114   6    0.3907
115   6    0.3885
116   6    0.3876
117   6    0.3880
118   6    0.3899
119   6    0.3932
120   6    0.3977
121   6    0.4031
122   6    0.4092
123   6    0.4154
124   6    0.4213
125   6    0.4265
126   6    0.4304
127   6    0.4327
128   6    0.4333
  1   7    0.4300
  2   7    0.4264
  3   7    0.4216
  4   7    0.4159
  5   7    0.4099
  6   7    0.4040
  7   7    0.3989
  8   7    0.3950
  9   7    0.3927
 10   7    0.3921
 11   7    0.3934
 12   7    0.3964
 13   7    0.4011
 14   7    0.4069
 15   7    0.4134
 16   7    0.4200
 17   7    0.4258
 18   7    0.4302
 19   7    0.4327
 20   7    0.4328
 21   7    0.4303
 22   7    0.4251
 23   7    0.4176
 24   7    0.4082
 25   7    0.3977
 26   7    0.3867
 27   7    0.3760
 28   7    0.3662
 29   7    0.3580
 30   7    0.3517
 31   7    0.3476
 32   7    0.3459
 33   7    0.3465
 34   7    0.3493
 35   7    0.3541
 36   7    0.3607
 37   7    0.3686
 38   7    0.3773
 39   7    0.3864
 40   7    0.3951
 41   7    0.4031
 42   7    0.4099
 43   7    0.4152
 44   7    0.4189
 45   7    0.4211
 46   7    0.4219
 47   7    0.4218
 48   7    0.4212
 49   7    0.4203
 50   7    0.4196
 51   7    0.4194
 52   7    0.4197
 53   7    0.4206
 54   7    0.4220
 55   7    0.4236
 56   7    0.4251
 57   7    0.4262
 58   7    0.4265
 59   7    0.4257
 60   7    0.4236
 61   7    0.4200
 62   7    0.4152
 63   7    0.4091
 64   7    0.4022
 65   7    0.3948
 66   7    0.3873
 67   7    0.3802
 68   7    0.3737
 69   7    0.3683
 70   7    0.3640
 71   7    0.3611
 72   7    0.3596
 73   7    0.3595
 74   7    0.3608
 75   7    0.3632
 76   7    0.3666
 77   7    0.3708
 78   7    0.3754
 79   7    0.3801
 80   7    0.3846
 81   7    0.3886
 82   7    0.3918
 83   7    0.3940
 84   7    0.3950
 85   7    0.3950
 86   7    0.3939
 87   7    0.3919
 88   7    0.3894
 89   7    0.3865
 90   7    0.3836
 91   7    0.3811
 92   7    0.3792
 93   7    0.3781
 94   7    0.3780
 95   7    0.3791
 96   7    0.3812
 97   7    0.3843
 98   7    0.3883
 99   7    0.3930
100   7    0.3979
101   7    0.4028
102   7    0.4072
103   7    0.4109
104   7    0.4135
105   7    0.4148
106   7    0.4148
107   7    0.4133
108   7    0.4107
109   7    0.4071
110   7    0.4028
111   7    0.3983
112   7    0.3940
113   7    0.3902
114   7    0.3873
115   7    0.3855
116   7    0.3851
117   7    0.3861
118   7    0.3886
119   7    0.3925
120   7    0.3975
121   7    0.4033
122   7    0.4097
123   7    0.4160
124   7    0.4218
125   7    0.4266
126   7    0.4301
127   7    0.4319
128   7    0.4318
  1   8    0.4267
  2   8    0.4226
  3   8    0.4174
  4   8    0.4114
  5   8    0.4053
  6   8    0.3996
  7   8    0.3948
  8   8    0.3913
  9   8    0.3895
 10   8    0.3896
 11   8    0.3915
 12   8    0.3953
 13   8    0.4005
 14   8    0.4067
 15   8    0.4135
 16   8    0.4200
 17   8    0.4256
 18   8    0.4296
 19   8    0.4313
 20   8    0.4306
 21   8    0.4271
 22   8    0.4210
 23   8    0.4126
 24   8    0.4026
 25   8    0.3916
 26   8    0.3805
 27   8    0.3699
 28   8    0.3605
 29   8    0.3529
 30   8    0.3474
 31   8    0.3442
 32   8    0.3434
 33   8    0.3450
 34   8    0.3489
 35   8    0.3547
 36   8    0.3623
 37   8    0.3710
 38   8    0.3804
 39   8    0.3899
 40   8    0.3989
 41   8    0.4069
 42   8    0.4135
 43   8    0.4184
 44   8    0.4215
 45   8    0.4231
 46   8    0.4233
 47   8    0.4226
 48   8    0.4213
 49   8    0.4200
 50   8    0.4189
 51   8    0.4185
 52   8    0.4187
 53   8    0.4197
 54   8    0.4212
 55   8    0.4231
 56   8    0.4249
 57   8    0.4263
 58   8    0.4269
 59   8    0.4264
 60   8    0.4245
 61   8    0.4211
 62   8    0.4163
 63   8    0.4103
 64   8    0.4034
 65   8    0.3959
 66   8    0.3884
 67   8    0.3812
 68   8    0.3747
 69   8    0.3692
 70   8    0.3650
 71   8    0.3621
 72   8    0.3607
 73   8    0.3608
 74   8    0.3621
 75   8    0.3647
 76   8    0.3682
 77   8    0.3725
 78   8    0.3771
 79   8    0.3818
 80   8    0.3862
 81   8    0.3899
 82   8    0.3928
 83   8    0.3946
 84   8    0.3953
 85   8    0.3948
 86   8    0.3934
 87   8    0.3911
 88   8    0.3883
 89   8    0.3853
 90   8    0.3824
 91   8    0.3800
 92   8    0.3783
 93   8    0.3775
 94   8    0.3778
 95   8    0.3793
 96   8    0.3818
 97   8    0.3854
 98   8    0.3898
 99   8    0.3946
100   8    0.3997
101   8    0.4045
102   8    0.4087
103   8    0.4119
104   8    0.4139
105   8    0.4145
106   8    0.4137
107   8    0.4115
108   8    0.4081
109   8    0.4038
110   8    0.3991
111   8    0.3943
112   8    0.3898
113   8    0.3861
114   8    0.3833
115   8    0.3819
116   8    0.3819
117   8    0.3835
118   8    0.3865
119   8    0.3909
120   8    0.3963
121   8    0.4025
122   8    0.4091
123   8    0.4154
124   8    0.4211
125   8    0.4257
126   8    0.4287
127   8    0.4299
128   8    0.4292
  1   9    0.4225
  2   9    0.4180
  3   9    0.4123
  4   9    0.4061
  5   9    0.3999
  6   9    0.3944
  7   9    0.3898
  8   9    0.3868
  9   9    0.3856
 10   9    0.3862
 11   9    0.3888
 12   9    0.3931
 13   9    0.3988
 14   9    0.4055
 15   9    0.4125
 16   9    0.4190
 17   9    0.4245
 18   9    0.4281
 19   9    0.4294
 20   9    0.4280
 21   9    0.4239
 22   9    0.4171
 23   9    0.4082
 24   9    0.3979
 25   9    0.3867
 26   9    0.3756
 27   9    0.3653
 28   9    0.3564
 29   9    0.3495
 30   9    0.3448
 31   9    0.3425
 32   9    0.3426
 33   9    0.3452
 34   9    0.3500
 35   9    0.3568
 36   9    0.3651
 37   9    0.3745
 38   9    0.3844
 39   9    0.3941
 40   9    0.4031
 41   9    0.4108
 42   9    0.4168
 43   9    0.4210
 44   9    0.4234
 45   9    0.4240
 46   9    0.4234
 47   9    0.4218
 48   9    0.4199
 49   9    0.4180
 50   9    0.4166
 51   9    0.4160
 52   9    0.4162
 53   9    0.4173
 54   9    0.4191
 55   9    0.4213
 56   9    0.4235
 57   9    0.4254
 58   9    0.4264
 59   9    0.4263
 60   9    0.4248
 61   9    0.4217
 62   9    0.4172
 63   9    0.4114
 64   9    0.4046
 65   9    0.3973
 66   9    0.3898
 67   9    0.3827
 68   9    0.3762
 69   9    0.3709
 70   9    0.3667
 71   9    0.3641
 72   9    0.3629
 73   9    0.3631
 74   9    0.3648
 75   9    0.3676
 76   9    0.3714
 77   9    0.3758
 78   9    0.3806
 79   9    0.3853
 80   9    0.3896
 81   9    0.3932
 82   9    0.3958
 83   9    0.3972
 84   9    0.3974
 85   9    0.3964
 86   9    0.3944
 87   9    0.3916
 88   9    0.3885
 89   9    0.3852
 90   9    0.3822
 91   9    0.3798
 92   9    0.3782
 93   9    0.3776
 94   9    0.3783
 95   9    0.3801
 96   9    0.3831
 97   9    0.3870
 98   9    0.3917
 99   9    0.3968
100   9    0.4019
101   9    0.4066
102   9    0.4105
103   9    0.4132
104   9    0.4146
105   9    0.4144
106   9    0.4127
107   9    0.4097
108   9    0.4055
109   9    0.4005
110   9    0.3952
111   9    0.3900
112   9    0.3853
113   9    0.3815
114   9    0.3789
115   9    0.3778
116   9    0.3781
117   9    0.3801
118   9    0.3836
119   9    0.3884
120   9    0.3943
121   9    0.4008
122   9    0.4075
123   9    0.4138
124   9    0.4194
125   9    0.4236
126   9    0.4262
127   9    0.4268
128   9    0.4256
  1  10    0.4177
  2  10    0.4127
  3  10    0.4068
  4  10    0.4004
  5  10    0.3942
  6  10    0.3888
  7  10    0.3845
  8  10    0.3819
  9  10    0.3811
 10  10    0.3823
 11  10    0.3854
 12  10    0.3902
 13  10    0.3964
 14  10    0.4034
 15  10    0.4106
 16  10    0.4173
 17  10    0.4227
 18  10    0.4262
 19  10    0.4272
 20  10    0.4254
 21  10    0.4209
 22  10    0.4139
 23  10    0.4048
 24  10    0.3943
 25  10    0.3832
 26  10    0.3724
 27  10    0.3625
 28  10    0.3542
 29  10    0.3480
 30  10    0.3441
 31  10    0.3426
 32  10    0.3437
 33  10    0.3471
 34  10    0.3528
 35  10    0.3603
 36  10    0.3693
 37  10    0.3791
 38  10    0.3892
 39  10    0.3988
 40  10    0.4075
 41  10    0.4146
 42  10    0.4198
 43  10    0.4230
 44  10    0.4243
 45  10    0.4239
 46  10    0.4222
 47  10    0.4197
 48  10    0.4170
 49  10    0.4146
 50  10    0.4128
 51  10    0.4120
 52  10    0.4122
 53  10    0.4135
 54  10    0.4156
 55  10    0.4182
 56  10    0.4210
 57  10    0.4234
 58  10    0.4250
 59  10    0.4255
 60  10    0.4245
 61  10    0.4220
 62  10    0.4178
 63  10    0.4124
 64  10    0.4059
 65  10    0.3988
 66  10    0.3915
 67  10    0.3845
 68  10    0.3783
 69  10    0.3731
 70  10    0.3692
 71  10    0.3668
 72  10    0.3659
 73  10    0.3665
 74  10    0.3686
 75  10    0.3718
 76  10    0.3759
 77  10    0.3807
 78  10    0.3857
 79  10    0.3905
 80  10    0.3948
 81  10    0.3982
 82  10    0.4005
 83  10    0.4015
 84  10    0.4011
 85  10    0.3995
 86  10    0.3969
 87  10    0.3936
 88  10    0.3899
 89  10    0.3862
 90  10    0.3829
 91  10    0.3804
 92  10    0.3788
 93  10    0.3784
 94  10    0.3793
 95  10    0.3814
 96  10    0.3847
 97  10    0.3890
 98  10    0.3940
 99  10    0.3992
100  10    0.4044
101  10    0.4089
102  10    0.4125
103  10    0.4148
104  10    0.4155
105  10    0.4145
106  10    0.4119
107  10    0.4080
108  10    0.4029
109  10    0.3972
110  10    0.3913
111  10    0.3856
112  10    0.3806
113  10    0.3767
114  10    0.3742
115  10    0.3732
116  10    0.3739
117  10    0.3762
118  10    0.3801
119  10    0.3852
120  10    0.3914
121  10    0.3982
122  10    0.4050
123  10    0.4113
124  10    0.4167
125  10    0.4207
126  10    0.4229
127  10    0.4231
128  10    0.4213
  1  11    0.4127
  2  11    0.4074
  3  11    0.4011
  4  11    0.3947
  5  11    0.3885
  6  11    0.3831
  7  11    0.3791
  8  11    0.3768
  9  11    0.3764
 10  11    0.3781
 11  11    0.3816
 12  11    0.3869
 13  11    0.3934
 14  11    0.4008
 15  11    0.4083
 16  11    0.4151
 17  11    0.4206
 18  11    0.4240
 19  11    0.4250
 20  11    0.4231
 21  11    0.4185
 22  11    0.4115
 23  11    0.4024
 24  11    0.3921
 25  11    0.3814
 26  11    0.3710
 27  11    0.3616
 28  11    0.3540
 29  11    0.3485
 30  11    0.3453
 31  11    0.3447
 32  11    0.3466
 33  11    0.3508
 34  11    0.3572
 35  11    0.3653
 36  11    0.3747
 37  11    0.3847
 38  11    0.3947
 39  11    0.4040
 40  11    0.4120
 41  11    0.4182
 42  11    0.4223
 43  11    0.4243
 44  11    0.4243
 45  11    0.4226
 46  11    0.4198
 47  11    0.4163
 48  11    0.4128
 49  11    0.4098
 50  11    0.4077
 51  11    0.4067
 52  11    0.4070
 53  11    0.4085
 54  11    0.4110
 55  11    0.4142
 56  11    0.4176
 57  11    0.4207
 58  11    0.4230
 59  11    0.4241
 60  11    0.4238
 61  11    0.4218
 62  11    0.4182
 63  11    0.4132
 64  11    0.4071
 65  11    0.4003
 66  11    0.3933
 67  11    0.3866
 68  11    0.3806
 69  11    0.3757
 70  11    0.3722
 71  11    0.3701
 72  11    0.3696
 73  11    0.3707
 74  11    0.3733
 75  11    0.3770
 76  11    0.3816
 77  11    0.3868
 78  11    0.3921
 79  11    0.3972
 80  11    0.4015
 81  11    0.4048
 82  11    0.4068
 83  11    0.4073
 84  11    0.4064
 85  11    0.4041
 86  11    0.4008
 87  11    0.3968
 88  11    0.3924
 89  11    0.3882
 90  11    0.3845
 91  11    0.3817
 92  11    0.3800
 93  11    0.3796
 94  11    0.3806
 95  11    0.3830
 96  11    0.3866
 97  11    0.3912
 98  11    0.3964
 99  11    0.4019
100  11    0.4071
101  11    0.4115
102  11    0.4148
103  11    0.4166
104  11    0.4166
105  11    0.4149
106  11    0.4114
107  11    0.4065
108  11    0.4006
109  11    0.3941
110  11    0.3875
111  11    0.3813
112  11    0.3760
113  11    0.3720
114  11    0.3694
115  11    0.3685
116  11    0.3694
117  11    0.3720
118  11    0.3761
119  11    0.3816
120  11    0.3880
121  11    0.3950
122  11    0.4019
123  11    0.4083
124  11    0.4135
125  11    0.4172
126  11    0.4190
127  11    0.4188
128  11    0.4167
  1  12    0.4078
  2  12    0.4022
  3  12    0.3958
  4  12    0.3892
  5  12    0.3831
  6  12    0.3778
  7  12    0.3741
  8  12    0.3720
  9  12    0.3719
 10  12    0.3739
 11  12    0.3778
 12  12    0.3834
 13  12    0.3903
 14  12    0.3979
 15  12    0.4057
 16  12    0.4127
 17  12    0.4183
 18  12    0.4219
 19  12    0.4230
 20  12    0.4213
 21  12    0.4169
 22  12    0.4101
 23  12    0.4014
 24  12    0.3915
 25  12    0.3812
 26  12    0.3714
 27  12    0.3627
 28  12    0.3558
 29  12    0.3510
 30  12    0.3486
 31  12    0.3488
 32  12    0.3514
 33  12    0.3563
 34  12    0.3632
 35  12    0.3718
 36  12    0.3813
 37  12    0.3913
 38  12    0.4009
 39  12    0.4095
 40  12    0.4166
 41  12    0.4216
 42  12    0.4243
 43  12    0.4249
 44  12    0.4234
 45  12    0.4204
 46  12    0.4163
 47  12    0.4119
 48  12    0.4076
 49  12    0.4040
 50  12    0.4016
 51  12    0.4005
 52  12    0.4009
 53  12    0.4028
 54  12    0.4057
 55  12    0.4095
 56  12    0.4135
 57  12    0.4173
 58  12    0.4204
 59  12    0.4223
 60  12    0.4227
 61  12    0.4214
 62  12    0.4184
 63  12    0.4140
 64  12    0.4083
 65  12    0.4019
 66  12    0.3953
 67  12    0.3889
 68  12    0.3832
 69  12    0.3786
 70  12    0.3754
 71  12    0.3738
 72  12    0.3738
 73  12    0.3755
 74  12    0.3786
 75  12    0.3829
 76  12    0.3881
 77  12    0.3939
 78  12    0.3996
 79  12    0.4050
 80  12    0.4095
 81  12    0.4127
 82  12    0.4144
 83  12    0.4144
 84  12    0.4128
 85  12    0.4098
 86  12    0.4057
 87  12    0.4009
 88  12    0.3958
 89  12    0.3909
 90  12    0.3867
 91  12    0.3834
 92  12    0.3815
 93  12    0.3811
 94  12    0.3822
 95  12    0.3847
 96  12    0.3886
 97  12    0.3934
 98  12    0.3989
 99  12    0.4045
100  12    0.4098
101  12    0.4142
102  12    0.4172
103  12    0.4185
104  12    0.4180
105  12    0.4155
106  12    0.4112
107  12    0.4054
108  12    0.3986
109  12    0.3913
110  12    0.3841
111  12    0.3774
112  12    0.3717
113  12    0.3675
114  12    0.3648
115  12    0.3640
116  12    0.3650
117  12    0.3677
118  12    0.3721
119  12    0.3778
120  12    0.3844
121  12    0.3915
122  12    0.3985
123  12    0.4049
124  12    0.4100
125  12    0.4136
126  12    0.4151
127  12    0.4146
128  12    0.4121
  1  13    0.4035
  2  13    0.3977
  3  13    0.3911
  4  13    0.3845
  5  13    0.3783
  6  13    0.3732
  7  13    0.3696
  8  13    0.3677
  9  13    0.3679
 10  13    0.3701
 11  13    0.3743
 12  13    0.3801
 13  13    0.3873
 14  13    0.3951
 15  13    0.4031
 16  13    0.4104
 17  13    0.4162
 18  13    0.4201
 19  13    0.4215
 20  13    0.4202
 21  13    0.4162
 22  13    0.4098
 23  13    0.4017
 24  13    0.3924
 25  13    0.3828
 26  13    0.3737
 27  13    0.3658
 28  13    0.3596
 29  13    0.3555
 30  13    0.3539
 31  13    0.3547
 32  13    0.3579
 33  13    0.3634
 34  13    0.3707
 35  13    0.3794
 36  13    0.3890
 37  13    0.3986
 38  13    0.4075
 39  13    0.4152
 40  13    0.4210
 41  13    0.4246
 42  13    0.4258
 43  13    0.4248
 44  13    0.4218
 45  13    0.4173
 46  13    0.4121
 47  13    0.4066
 48  13    0.4016
 49  13    0.3975
 50  13    0.3948
 51  13    0.3938
 52  13    0.3944
 53  13    0.3965
 54  13    0.4000
 55  13    0.4043
 56  13    0.4091
 57  13    0.4136
 58  13    0.4175
 59  13    0.4202
 60  13    0.4214
 61  13    0.4208
 62  13    0.4185
 63  13    0.4146
 64  13    0.4094
 65  13    0.4034
 66  13    0.3972
 67  13    0.3911
 68  13    0.3858
 69  13    0.3816
 70  13    0.3788
 71  13    0.3777
 72  13    0.3782
 73  13    0.3804
 74  13    0.3842
 75  13    0.3892
 76  13    0.3951
 77  13    0.4014
 78  13    0.4077
 79  13    0.4134
 80  13    0.4181
 81  13    0.4213
 82  13    0.4227
 83  13    0.4223
 84  13    0.4201
 85  13    0.4163
 86  13    0.4113
 87  13    0.4056
 88  13    0.3997
 89  13    0.3940
 90  13    0.3891
 91  13    0.3854
 92  13    0.3832
 93  13    0.3826
 94  13    0.3836
 95  13    0.3863
 96  13    0.3903
 97  13    0.3955
 98  13    0.4012
 99  13    0.4070
100  13    0.4124
101  13    0.4167
102  13    0.4196
103  13    0.4206
104  13    0.4195
105  13    0.4164
106  13    0.4114
107  13    0.4048
108  13    0.3972
109  13    0.3892
110  13    0.3813
111  13    0.3741
112  13    0.3680
113  13    0.3635
114  13    0.3607
115  13    0.3598
116  13    0.3609
117  13    0.3637
118  13    0.3683
119  13    0.3741
120  13    0.3809
121  13    0.3882
122  13    0.3953
123  13    0.4016
124  13    0.4067
125  13    0.4101
126  13    0.4115