variables =  "IG"  "JG"  "PHI"
 ZONE I=         128 J=          128
  1   1    0.9515
  2   1    0.9158
  3   1    0.8361
  4   1    0.7112
  5   1    0.5585
  6   1    0.4096
  7   1    0.2878
  8   1    0.2042
  9   1    0.1552
 10   1    0.1341
 11   1    0.1372
 12   1    0.1661
 13   1    0.2282
 14   1    0.3328
 15   1    0.4804
 16   1    0.6517
 17   1    0.8096
 18   1    0.9174
 19   1    0.9640
 20   1    0.9784
 21   1    0.9823
 22   1    0.9835
 23   1    0.9834
 24   1    0.9823
 25   1    0.9772
 26   1    0.9584
 27   1    0.8989
 28   1    0.7745
 29   1    0.6061
 30   1    0.4354
 31   1    0.2952
 32   1    0.1992
 33   1    0.1414
 34   1    0.1100
 35   1    0.0948
 36   1    0.0880
 37   1    0.0854
 38   1    0.0846
 39   1    0.0847
 40   1    0.0852
 41   1    0.0860
 42   1    0.0872
 43   1    0.0893
 44   1    0.0934
 45   1    0.1012
 46   1    0.1155
 47   1    0.1399
 48   1    0.1783
 49   1    0.2333
 50   1    0.3053
 51   1    0.3900
 52   1    0.4772
 53   1    0.5558
 54   1    0.6165
 55   1    0.6529
 56   1    0.6623
 57   1    0.6438
 58   1    0.5985
 59   1    0.5303
 60   1    0.4468
 61   1    0.3583
 62   1    0.2766
 63   1    0.2101
 64   1    0.1612
 65   1    0.1284
 66   1    0.1086
 67   1    0.0982
 68   1    0.0940
 69   1    0.0941
 70   1    0.0979
 71   1    0.1058
 72   1    0.1189
 73   1    0.1389
 74   1    0.1676
 75   1    0.2068
 76   1    0.2575
 77   1    0.3196
 78   1    0.3905
 79   1    0.4646
 80   1    0.5351
 81   1    0.5950
 82   1    0.6380
 83   1    0.6589
 84   1    0.6541
 85   1    0.6217
 86   1    0.5630
 87   1    0.4841
 88   1    0.3953
 89   1    0.3093
 90   1    0.2372
 91   1    0.1835
 92   1    0.1478
 93   1    0.1277
 94   1    0.1211
 95   1    0.1283
 96   1    0.1530
 97   1    0.2031
 98   1    0.2882
 99   1    0.4149
100   1    0.5736
101   1    0.7381
102   1    0.8698
103   1    0.9446
104   1    0.9720
105   1    0.9806
106   1    0.9829
107   1    0.9832
108   1    0.9818
109   1    0.9771
110   1    0.9621
111   1    0.9172
112   1    0.8174
113   1    0.6724
114   1    0.5132
115   1    0.3747
116   1    0.2763
117   1    0.2230
118   1    0.2106
119   1    0.2366
120   1    0.3024
121   1    0.4084
122   1    0.5445
123   1    0.6900
124   1    0.8156
125   1    0.9017
126   1    0.9450
127   1    0.9610
128   1    0.9628
  1   2    0.9719
  2   2    0.9512
  3   2    0.8924
  4   2    0.7777
  5   2    0.6225
  6   2    0.4606
  7   2    0.3231
  8   2    0.2260
  9   2    0.1684
 10   2    0.1428
 11   2    0.1444
 12   2    0.1743
 13   2    0.2397
 14   2    0.3495
 15   2    0.5021
 16   2    0.6757
 17   2    0.8299
 18   2    0.9293
 19   2    0.9683
 20   2    0.9797
 21   2    0.9828
 22   2    0.9834
 23   2    0.9832
 24   2    0.9815
 25   2    0.9747
 26   2    0.9512
 27   2    0.8818
 28   2    0.7497
 29   2    0.5791
 30   2    0.4118
 31   2    0.2776
 32   2    0.1873
 33   2    0.1335
 34   2    0.1048
 35   2    0.0910
 36   2    0.0849
 37   2    0.0824
 38   2    0.0817
 39   2    0.0818
 40   2    0.0823
 41   2    0.0832
 42   2    0.0849
 43   2    0.0881
 44   2    0.0941
 45   2    0.1057
 46   2    0.1270
 47   2    0.1630
 48   2    0.2188
 49   2    0.2977
 50   2    0.3983
 51   2    0.5097
 52   2    0.6179
 53   2    0.7086
 54   2    0.7723
 55   2    0.8076
 56   2    0.8159
 57   2    0.7978
 58   2    0.7516
 59   2    0.6764
 60   2    0.5763
 61   2    0.4638
 62   2    0.3536
 63   2    0.2597
 64   2    0.1892
 65   2    0.1412
 66   2    0.1116
 67   2    0.0951
 68   2    0.0869
 69   2    0.0836
 70   2    0.0836
 71   2    0.0864
 72   2    0.0926
 73   2    0.1031
 74   2    0.1197
 75   2    0.1439
 76   2    0.1769
 77   2    0.2192
 78   2    0.2698
 79   2    0.3260
 80   2    0.3826
 81   2    0.4331
 82   2    0.4708
 83   2    0.4904
 84   2    0.4883
 85   2    0.4636
 86   2    0.4190
 87   2    0.3606
 88   2    0.2974
 89   2    0.2386
 90   2    0.1900
 91   2    0.1538
 92   2    0.1299
 93   2    0.1168
 94   2    0.1137
 95   2    0.1213
 96   2    0.1436
 97   2    0.1880
 98   2    0.2632
 99   2    0.3768
100   2    0.5233
101   2    0.6824
102   2    0.8209
103   2    0.9143
104   2    0.9576
105   2    0.9732
106   2    0.9781
107   2    0.9787
108   2    0.9757
109   2    0.9661
110   2    0.9391
111   2    0.8736
112   2    0.7602
113   2    0.6141
114   2    0.4658
115   2    0.3422
116   2    0.2585
117   2    0.2172
118   2    0.2153
119   2    0.2531
120   2    0.3340
121   2    0.4573
122   2    0.6086
123   2    0.7602
124   2    0.8783
125   2    0.9441
126   2    0.9692
127   2    0.9771
128   2    0.9777
  1   3    0.9787
  2   3    0.9652
  3   3    0.9216
  4   3    0.8185
  5   3    0.6655
  6   3    0.4966
  7   3    0.3490
  8   3    0.2424
  9   3    0.1784
 10   3    0.1491
 11   3    0.1490
 12   3    0.1784
 13   3    0.2440
 14   3    0.3544
 15   3    0.5074
 16   3    0.6807
 17   3    0.8335
 18   3    0.9308
 19   3    0.9688
 20   3    0.9797
 21   3    0.9826
 22   3    0.9831
 23   3    0.9823
 24   3    0.9794
 25   3    0.9690
 26   3    0.9351
 27   3    0.8482
 28   3    0.7054
 29   3    0.5348
 30   3    0.3756
 31   3    0.2526
 32   3    0.1717
 33   3    0.1243
 34   3    0.0995
 35   3    0.0878
 36   3    0.0827
 37   3    0.0807
 38   3    0.0801
 39   3    0.0802
 40   3    0.0809
 41   3    0.0821
 42   3    0.0842
 43   3    0.0884
 44   3    0.0967
 45   3    0.1126
 46   3    0.1420
 47   3    0.1914
 48   3    0.2671
 49   3    0.3722
 50   3    0.4992
 51   3    0.6317
 52   3    0.7490
 53   3    0.8358
 54   3    0.8896
 55   3    0.9153
 56   3    0.9207
 57   3    0.9079
 58   3    0.8717
 59   3    0.8044
 60   3    0.7035
 61   3    0.5763
 62   3    0.4425
 63   3    0.3211
 64   3    0.2266
 65   3    0.1613
 66   3    0.1205
 67   3    0.0974
 68   3    0.0856
 69   3    0.0800
 70   3    0.0780
 71   3    0.0783
 72   3    0.0807
 73   3    0.0858
 74   3    0.0945
 75   3    0.1081
 76   3    0.1279
 77   3    0.1544
 78   3    0.1874
 79   3    0.2250
 80   3    0.2643
 81   3    0.3008
 82   3    0.3292
 83   3    0.3450
 84   3    0.3451
 85   3    0.3291
 86   3    0.2997
 87   3    0.2618
 88   3    0.2216
 89   3    0.1844
 90   3    0.1536
 91   3    0.1307
 92   3    0.1157
 93   3    0.1078
 94   3    0.1068
 95   3    0.1139
 96   3    0.1327
 97   3    0.1695
 98   3    0.2320
 99   3    0.3275
100   3    0.4556
101   3    0.6016
102   3    0.7418
103   3    0.8508
104   3    0.9183
105   3    0.9496
106   3    0.9612
107   3    0.9625
108   3    0.9550
109   3    0.9334
110   3    0.8842
111   3    0.7963
112   3    0.6737
113   3    0.5338
114   3    0.4026
115   3    0.2992
116   3    0.2332
117   3    0.2049
118   3    0.2132
119   3    0.2605
120   3    0.3524
121   3    0.4871
122   3    0.6476
123   3    0.8004
124   3    0.9099
125   3    0.9608
126   3    0.9774
127   3    0.9818
128   3    0.9822
  1   4    0.9807
  2   4    0.9694
  3   4    0.9313
  4   4    0.8345
  5   4    0.6835
  6   4    0.5126
  7   4    0.3611
  8   4    0.2505
  9   4    0.1835
 10   4    0.1522
 11   4    0.1503
 12   4    0.1778
 13   4    0.2406
 14   4    0.3469
 15   4    0.4956
 16   4    0.6660
 17   4    0.8200
 18   4    0.9225
 19   4    0.9653
 20   4    0.9783
 21   4    0.9818
 22   4    0.9821
 23   4    0.9806
 24   4    0.9746
 25   4    0.9562
 26   4    0.9036
 27   4    0.7952
 28   4    0.6425
 29   4    0.4768
 30   4    0.3307
 31   4    0.2231
 32   4    0.1541
 33   4    0.1145
 34   4    0.0943
 35   4    0.0849
 36   4    0.0809
 37   4    0.0794
 38   4    0.0791
 39   4    0.0794
 40   4    0.0802
 41   4    0.0816
 42   4    0.0843
 43   4    0.0895
 44   4    0.1001
 45   4    0.1209
 46   4    0.1589
 47   4    0.2224
 48   4    0.3187
 49   4    0.4481
 50   4    0.5958
 51   4    0.7382
 52   4    0.8493
 53   4    0.9186
 54   4    0.9508
 55   4    0.9630
 56   4    0.9653
 57   4    0.9595
 58   4    0.9408
 59   4    0.8951
 60   4    0.8080
 61   4    0.6817
 62   4    0.5327
 63   4    0.3887
 64   4    0.2701
 65   4    0.1864
 66   4    0.1332
 67   4    0.1030
 68   4    0.0873
 69   4    0.0798
 70   4    0.0765
 71   4    0.0755
 72   4    0.0762
 73   4    0.0786
 74   4    0.0831
 75   4    0.0904
 76   4    0.1016
 77   4    0.1173
 78   4    0.1376
 79   4    0.1615
 80   4    0.1870
 81   4    0.2110
 82   4    0.2303
 83   4    0.2415
 84   4    0.2427
 85   4    0.2336
 86   4    0.2162
 87   4    0.1935
 88   4    0.1693
 89   4    0.1468
 90   4    0.1282
 91   4    0.1144
 92   4    0.1054
 93   4    0.1009
 94   4    0.1010
 95   4    0.1069
 96   4    0.1216
 97   4    0.1502
 98   4    0.1990
 99   4    0.2741
100   4    0.3783
101   4    0.5037
102   4    0.6337
103   4    0.7482
104   4    0.8322
105   4    0.8837
106   4    0.9074
107   4    0.9104
108   4    0.8940
109   4    0.8538
110   4    0.7843
111   4    0.6848
112   4    0.5639
113   4    0.4406
114   4    0.3323
115   4    0.2522
116   4    0.2044
117   4    0.1882
118   4    0.2044
119   4    0.2575
120   4    0.3544
121   4    0.4938
122   4    0.6580
123   4    0.8115
124   4    0.9183
125   4    0.9648
126   4    0.9792
127   4    0.9830
128   4    0.9834
  1   5    0.9794
  2   5    0.9669
  3   5    0.9259
  4   5    0.8261
  5   5    0.6751
  6   5    0.5063
  7   5    0.3574
  8   5    0.2489
  9   5    0.1829
 10   5    0.1514
 11   5    0.1482
 12   5    0.1727
 13   5    0.2300
 14   5    0.3279
 15   5    0.4674
 16   5    0.6313
 17   5    0.7869
 18   5    0.8998
 19   5    0.9550
 20   5    0.9737
 21   5    0.9791
 22   5    0.9793
 23   5    0.9753
 24   5    0.9630
 25   5    0.9285
 26   5    0.8490
 27   5    0.7215
 28   5    0.5645
 29   5    0.4100
 30   5    0.2822
 31   5    0.1924
 32   5    0.1363
 33   5    0.1051
 34   5    0.0895
 35   5    0.0824
 36   5    0.0795
 37   5    0.0785
 38   5    0.0784
 39   5    0.0789
 40   5    0.0798
 41   5    0.0815
 42   5    0.0846
 43   5    0.0909
 44   5    0.1038
 45   5    0.1292
 46   5    0.1756
 47   5    0.2525
 48   5    0.3676
 49   5    0.5159
 50   5    0.6767
 51   5    0.8171
 52   5    0.9123
 53   5    0.9568
 54   5    0.9729
 55   5    0.9781
 56   5    0.9789
 57   5    0.9766
 58   5    0.9681
 59   5    0.9437
 60   5    0.8812
 61   5    0.7672
 62   5    0.6149
 63   5    0.4547
 64   5    0.3154
 65   5    0.2135
 66   5    0.1480
 67   5    0.1102
 68   5    0.0906
 69   5    0.0812
 70   5    0.0769
 71   5    0.0753
 72   5    0.0752
 73   5    0.0763
 74   5    0.0788
 75   5    0.0832
 76   5    0.0898
 77   5    0.0994
 78   5    0.1121
 79   5    0.1273
 80   5    0.1439
 81   5    0.1598
 82   5    0.1725
 83   5    0.1801
 84   5    0.1813
 85   5    0.1760
 86   5    0.1655
 87   5    0.1517
 88   5    0.1371
 89   5    0.1235
 90   5    0.1123
 91   5    0.1039
 92   5    0.0985
 93   5    0.0959
 94   5    0.0964
 95   5    0.1008
 96   5    0.1116
 97   5    0.1323
 98   5    0.1680
 99   5    0.2233
100   5    0.3015
101   5    0.4005
102   5    0.5095
103   5    0.6142
104   5    0.7009
105   5    0.7605
106   5    0.7915
107   5    0.7953
108   5    0.7727
109   5    0.7231
110   5    0.6470
111   5    0.5505
112   5    0.4458
113   5    0.3463
114   5    0.2646
115   5    0.2074
116   5    0.1757
117   5    0.1692
118   5    0.1902
119   5    0.2444
120   5    0.3398
121   5    0.4769
122   5    0.6394
123   5    0.7946
124   5    0.9069
125   5    0.9598
126   5    0.9772
127   5    0.9821
128   5    0.9825
  1   6    0.9731
  2   6    0.9545
  3   6    0.9008
  4   6    0.7914
  5   6    0.6396
  6   6    0.4779
  7   6    0.3383
  8   6    0.2378
  9   6    0.1767
 10   6    0.1472
 11   6    0.1433
 12   6    0.1640
 13   6    0.2138
 14   6    0.2997
 15   6    0.4250
 16   6    0.5773
 17   6    0.7315
 18   6    0.8547
 19   6    0.9291
 20   6    0.9601
 21   6    0.9698
 22   6    0.9695
 23   6    0.9602
 24   6    0.9338
 25   6    0.8727
 26   6    0.7680
 27   6    0.6285
 28   6    0.4776
 29   6    0.3407
 30   6    0.2350
 31   6    0.1636
 32   6    0.1203
 33   6    0.0969
 34   6    0.0855
 35   6    0.0805
 36   6    0.0785
 37   6    0.0779
 38   6    0.0781
 39   6    0.0787
 40   6    0.0798
 41   6    0.0816
 42   6    0.0851
 43   6    0.0923
 44   6    0.1071
 45   6    0.1364
 46   6    0.1898
 47   6    0.2777
 48   6    0.4072
 49   6    0.5684
 50   6    0.7347
 51   6    0.8675
 52   6    0.9431
 53   6    0.9711
 54   6    0.9797
 55   6    0.9822
 56   6    0.9825
 57   6    0.9815
 58   6    0.9775
 59   6    0.9643
 60   6    0.9237
 61   6    0.8282
 62   6    0.6814
 63   6    0.5120
 64   6    0.3572
 65   6    0.2395
 66   6    0.1627
 67   6    0.1178
 68   6    0.0944
 69   6    0.0833
 70   6    0.0782
 71   6    0.0762
 72   6    0.0758
 73   6    0.0765
 74   6    0.0784
 75   6    0.0817
 76   6    0.0868
 77   6    0.0940
 78   6    0.1035
 79   6    0.1148
 80   6    0.1270
 81   6    0.1385
 82   6    0.1475
 83   6    0.1526
 84   6    0.1529
 85   6    0.1486
 86   6    0.1408
 87   6    0.1309
 88   6    0.1206
 89   6    0.1112
 90   6    0.1036
 91   6    0.0980
 92   6    0.0943
 93   6    0.0926
 94   6    0.0929
 95   6    0.0960
 96   6    0.1033
 97   6    0.1174
 98   6    0.1417
 99   6    0.1800
100   6    0.2344
101   6    0.3051
102   6    0.3875
103   6    0.4712
104   6    0.5451
105   6    0.6003
106   6    0.6308
107   6    0.6344
108   6    0.6111
109   6    0.5632
110   6    0.4956
111   6    0.4163
112   6    0.3352
113   6    0.2631
114   6    0.2069
115   6    0.1691
116   6    0.1499
117   6    0.1501
118   6    0.1726
119   6    0.2236
120   6    0.3113
121   6    0.4387
122   6    0.5934
123   6    0.7490
124   6    0.8713
125   6    0.9413
126   6    0.9683
127   6    0.9771
128   6    0.9781
  1   7    0.9521
  2   7    0.9196
  3   7    0.8460
  4   7    0.7273
  5   7    0.5788
  6   7    0.4307
  7   7    0.3066
  8   7    0.2193
  9   7    0.1662
 10   7    0.1403
 11   7    0.1364
 12   7    0.1532
 13   7    0.1944
 14   7    0.2660
 15   7    0.3726
 16   7    0.5076
 17   7    0.6525
 18   7    0.7806
 19   7    0.8719
 20   7    0.9218
 21   7    0.9404
 22   7    0.9389
 23   7    0.9180
 24   7    0.8682
 25   7    0.7824
 26   7    0.6629
 27   7    0.5244
 28   7    0.3895
 29   7    0.2759
 30   7    0.1932
 31   7    0.1391
 32   7    0.1073
 33   7    0.0907
 34   7    0.0827
 35   7    0.0793
 36   7    0.0781
 37   7    0.0779
 38   7    0.0783
 39   7    0.0790
 40   7    0.0801
 41   7    0.0821
 42   7    0.0858
 43   7    0.0936
 44   7    0.1097
 45   7    0.1416
 46   7    0.1996
 47   7    0.2946
 48   7    0.4329
 49   7    0.6013
 50   7    0.7684
 51   7    0.8936
 52   7    0.9558
 53   7    0.9760
 54   7    0.9817
 55   7    0.9832
 56   7    0.9835
 57   7    0.9829
 58   7    0.9807
 59   7    0.9725
 60   7    0.9448
 61   7    0.8668
 62   7    0.7282
 63   7    0.5556
 64   7    0.3908
 65   7    0.2613
 66   7    0.1754
 67   7    0.1248
 68   7    0.0982
 69   7    0.0855
 70   7    0.0799
 71   7    0.0777
 72   7    0.0774
 73   7    0.0784
 74   7    0.0806
 75   7    0.0845
 76   7    0.0902
 77   7    0.0982
 78   7    0.1082
 79   7    0.1199
 80   7    0.1318
 81   7    0.1424
 82   7    0.1499
 83   7    0.1531
 84   7    0.1516
 85   7    0.1458
 86   7    0.1369
 87   7    0.1267
 88   7    0.1165
 89   7    0.1076
 90   7    0.1006
 91   7    0.0955
 92   7    0.0923
 93   7    0.0906
 94   7    0.0905
 95   7    0.0923
 96   7    0.0970
 97   7    0.1060
 98   7    0.1216
 99   7    0.1462
100   7    0.1817
101   7    0.2283
102   7    0.2836
103   7    0.3426
104   7    0.3973
105   7    0.4395
106   7    0.4634
107   7    0.4659
108   7    0.4469
109   7    0.4091
110   7    0.3578
111   7    0.3006
112   7    0.2454
113   7    0.1981
114   7    0.1623
115   7    0.1391
116   7    0.1289
117   7    0.1328
118   7    0.1539
119   7    0.1983
120   7    0.2735
121   7    0.3847
122   7    0.5247
123   7    0.6742
124   7    0.8042
125   7    0.8947
126   7    0.9414
127   7    0.9592
128   7    0.9620
  1   8    0.8929
  2   8    0.8426
  3   8    0.7554
  4   8    0.6347
  5   8    0.4987
  6   8    0.3707
  7   8    0.2677
  8   8    0.1965
  9   8    0.1534
 10   8    0.1322
 11   8    0.1287
 12   8    0.1418
 13   8    0.1743
 14   8    0.2309
 15   8    0.3163
 16   8    0.4288
 17   8    0.5554
 18   8    0.6775
 19   8    0.7746
 20   8    0.8369
 21   8    0.8645
 22   8    0.8609
 23   8    0.8267
 24   8    0.7605
 25   8    0.6632
 26   8    0.5441
 27   8    0.4207
 28   8    0.3089
 29   8    0.2212
 30   8    0.1597
 31   8    0.1206
 32   8    0.0984
 33   8    0.0871
 34   8    0.0818
 35   8    0.0797
 36   8    0.0791
 37   8    0.0792
 38   8    0.0797
 39   8    0.0804
 40   8    0.0815
 41   8    0.0834
 42   8    0.0872
 43   8    0.0950
 44   8    0.1115
 45   8    0.1443
 46   8    0.2038
 47   8    0.3012
 48   8    0.4422
 49   8    0.6127
 50   8    0.7793
 51   8    0.9014
 52   8    0.9589
 53   8    0.9771
 54   8    0.9820
 55   8    0.9832
 56   8    0.9835
 57   8    0.9832
 58   8    0.9816
 59   8    0.9756
 60   8    0.9538
 61   8    0.8868
 62   8    0.7550
 63   8    0.5825
 64   8    0.4124
 65   8    0.2759
 66   8    0.1844
 67   8    0.1301
 68   8    0.1013
 69   8    0.0877
 70   8    0.0818
 71   8    0.0797
 72   8    0.0799
 73   8    0.0818
 74   8    0.0856
 75   8    0.0917
 76   8    0.1007
 77   8    0.1128
 78   8    0.1275
 79   8    0.1437
 80   8    0.1594
 81   8    0.1723
 82   8    0.1802
 83   8    0.1819
 84   8    0.1771
 85   8    0.1669
 86   8    0.1531
 87   8    0.1381
 88   8    0.1239
 89   8    0.1119
 90   8    0.1027
 91   8    0.0962
 92   8    0.0921
 93   8    0.0898
 94   8    0.0890
 95   8    0.0898
 96   8    0.0925
 97   8    0.0979
 98   8    0.1074
 99   8    0.1223
100   8    0.1440
101   8    0.1727
102   8    0.2071
103   8    0.2441
104   8    0.2791
105   8    0.3069
106   8    0.3227
107   8    0.3240
108   8    0.3106
109   8    0.2849
110   8    0.2513
111   8    0.2151
112   8    0.1808
113   8    0.1521
114   8    0.1308
115   8    0.1177
116   8    0.1131
117   8    0.1182
118   8    0.1361
119   8    0.1720
120   8    0.2324
121   8    0.3227
122   8    0.4414
123   8    0.5750
124   8    0.7036
125   8    0.8056
126   8    0.8724
127   8    0.9055
128   8    0.9117
  1   9    0.7787
  2   9    0.7218
  3   9    0.6332
  4   9    0.5235
  5   9    0.4093
  6   9    0.3066
  7   9    0.2273
  8   9    0.1730
  9   9    0.1401
 10   9    0.1241
 11   9    0.1214
 12   9    0.1313
 13   9    0.1557
 14   9    0.1983
 15   9    0.2627
 16   9    0.3497
 17   9    0.4521
 18   9    0.5559
 19   9    0.6457
 20   9    0.7085
 21   9    0.7378
 22   9    0.7325
 23   9    0.6936
 24   9    0.6240
 25   9    0.5314
 26   9    0.4283
 27   9    0.3282
 28   9    0.2436
 29   9    0.1800
 30   9    0.1365
 31   9    0.1096
 32   9    0.0948
 33   9    0.0873
 34   9    0.0841
 35   9    0.0830
 36   9    0.0829
 37   9    0.0833
 38   9    0.0838
 39   9    0.0844
 40   9    0.0851
 41   9    0.0866
 42   9    0.0899
 43   9    0.0973
 44   9    0.1131
 45   9    0.1448
 46   9    0.2023
 47   9    0.2970
 48   9    0.4349
 49   9    0.6027
 50   9    0.7691
 51   9    0.8937
 52   9    0.9554
 53   9    0.9757
 54   9    0.9812
 55   9    0.9828
 56   9    0.9832
 57   9    0.9830
 58   9    0.9815
 59   9    0.9761
 60   9    0.9558
 61   9    0.8922
 62   9    0.7630
 63   9    0.5913
 64   9    0.4201
 65   9    0.2818
 66   9    0.1885
 67   9    0.1330
 68   9    0.1036
 69   9    0.0896
 70   9    0.0838
 71   9    0.0823
 72   9    0.0836
 73   9    0.0875
 74   9    0.0945
 75   9    0.1056
 76   9    0.1215
 77   9    0.1421
 78   9    0.1665
 79   9    0.1922
 80   9    0.2161
 81   9    0.2347
 82   9    0.2448
 83   9    0.2447
 84   9    0.2345
 85   9    0.2161
 86   9    0.1927
 87   9    0.1678
 88   9    0.1446
 89   9    0.1252
 90   9    0.1105
 91   9    0.1003
 92   9    0.0938
 93   9    0.0901
 94   9    0.0884
 95   9    0.0882
 96   9    0.0895
 97   9    0.0927
 98   9    0.0982
 99   9    0.1069
100   9    0.1196
101   9    0.1363
102   9    0.1565
103   9    0.1783
104   9    0.1988
105   9    0.2151
106   9    0.2242
107   9    0.2245
108   9    0.2160
109   9    0.2003
110   9    0.1802
111   9    0.1587
112   9    0.1387
113   9    0.1223
114   9    0.1104
115   9    0.1036
116   9    0.1021
117   9    0.1069
118   9    0.1207
119   9    0.1477
120   9    0.1931
121   9    0.2614
122   9    0.3541
123   9    0.4644
124   9    0.5776
125   9    0.6781
126   9    0.7517
127   9    0.7931
128   9    0.8022
  1  10    0.6266
  2  10    0.5741
  3  10    0.4983
  4  10    0.4101
  5  10    0.3224
  6  10    0.2472
  7  10    0.1904
  8  10    0.1516
  9  10    0.1282
 10  10    0.1169
 11  10    0.1152
 12  10    0.1225
 13  10    0.1402
 14  10    0.1708
 15  10    0.2169
 16  10    0.2793
 17  10    0.3551
 18  10    0.4351
 19  10    0.5070
 20  10    0.5596
 21  10    0.5848
 22  10    0.5792
 23  10    0.5439
 24  10    0.4844
 25  10    0.4093
 26  10    0.3297
 27  10    0.2569
 28  10    0.1978
 29  10    0.1544
 30  10    0.1253
 31  10    0.1079
 32  10    0.0985
 33  10    0.0943
 34  10    0.0928
 35  10    0.0928
 36  10    0.0933
 37  10    0.0938
 38  10    0.0940
 39  10    0.0939
 40  10    0.0937
 41  10    0.0941
 42  10    0.0961
 43  10    0.1019
 44  10    0.1157
 45  10    0.1441
 46  10    0.1966
 47  10    0.2836
 48  10    0.4124
 49  10    0.5727
 50  10    0.7380
 51  10    0.8695
 52  10    0.9438
 53  10    0.9710
 54  10    0.9793
 55  10    0.9818
 56  10    0.9826
 57  10    0.9824
 58  10    0.9808
 59  10    0.9745
 60  10    0.9519
 61  10    0.8840
 62  10    0.7526
 63  10    0.5816
 64  10    0.4134
 65  10    0.2783
 66  10    0.1875
 67  10    0.1334
 68  10    0.1048
 69  10    0.0914
 70  10    0.0862
 71  10    0.0859
 72  10    0.0892
 73  10    0.0967
 74  10    0.1096
 75  10    0.1295
 76  10    0.1572
 77  10    0.1922
 78  10    0.2322
 79  10    0.2734
 80  10    0.3107
 81  10    0.3384
 82  10    0.3523
 83  10    0.3500
 84  10    0.3318
 85  10    0.3007
 86  10    0.2617
 87  10    0.2206
 88  10    0.1823
 89  10    0.1502
 90  10    0.1258
 91  10    0.1088
 92  10    0.0981
 93  10    0.0919
 94  10    0.0887
 95  10    0.0875
 96  10    0.0878
 97  10    0.0896
 98  10    0.0928
 99  10    0.0980
100  10    0.1054
101  10    0.1152
102  10    0.1268
103  10    0.1393
104  10    0.1510
105  10    0.1600
106  10    0.1648
107  10    0.1644
108  10    0.1590
109  10    0.1494
110  10    0.1376
111  10    0.1252
112  10    0.1139
113  10    0.1049
114  10    0.0985
115  10    0.0950
116  10    0.0948
117  10    0.0987
118  10    0.1086
119  10    0.1275
120  10    0.1594
121  10    0.2078
122  10    0.2744
123  10    0.3570
124  10    0.4470
125  10    0.5314
126  10    0.5985
127  10    0.6394
128  10    0.6491
  1  11    0.4707
  2  11    0.4304
  3  11    0.3736
  4  11    0.3099
  5  11    0.2492
  6  11    0.1984
  7  11    0.1602
  8  11    0.1342
  9  11    0.1186
 10  11    0.1113
 11  11    0.1105
 12  11    0.1159
 13  11    0.1284
 14  11    0.1497
 15  11    0.1812
 16  11    0.2236
 17  11    0.2751
 18  11    0.3308
 19  11    0.3825
 20  11    0.4212
 21  11    0.4400
 22  11    0.4356
 23  11    0.4091
 24  11    0.3654
 25  11    0.3123
 26  11    0.2585
 27  11    0.2109
 28  11    0.1732
 29  11    0.1461
 30  11    0.1287
 31  11    0.1190
 32  11    0.1146
 33  11    0.1137
 34  11    0.1145
 35  11    0.1159
 36  11    0.1171
 37  11    0.1175
 38  11    0.1168
 39  11    0.1150
 40  11    0.1125
 41  11    0.1100
 42  11    0.1090
 43  11    0.1116
 44  11    0.1215
 45  11    0.1445
 46  11    0.1887
 47  11    0.2640
 48  11    0.3781
 49  11    0.5256
 50  11    0.6858
 51  11    0.8250
 52  11    0.9178
 53  11    0.9598
 54  11    0.9745
 55  11    0.9795
 56  11    0.9811
 57  11    0.9808
 58  11    0.9785
 59  11    0.9697
 60  11    0.9402
 61  11    0.8604
 62  11    0.7233
 63  11    0.5543
 64  11    0.3932
 65  11    0.2662
 66  11    0.1817
 67  11    0.1315
 68  11    0.1051
 69  11    0.0931
 70  11    0.0892
 71  11    0.0908
 72  11    0.0976
 73  11    0.1111
 74  11    0.1336
 75  11    0.1672
 76  11    0.2125
 77  11    0.2684
 78  11    0.3307
 79  11    0.3926
 80  11    0.4459
 81  11    0.4837
 82  11    0.5014
 83  11    0.4966
 84  11    0.4698
 85  11    0.4241
 86  11    0.3652
 87  11    0.3014
 88  11    0.2411
 89  11    0.1900
 90  11    0.1508
 91  11    0.1232
 92  11    0.1057
 93  11    0.0954
 94  11    0.0900
 95  11    0.0876
 96  11    0.0872
 97  11    0.0881
 98  11    0.0903
 99  11    0.0939
100  11    0.0989
101  11    0.1053
102  11    0.1127
103  11    0.1204
104  11    0.1274
105  11    0.1326
106  11    0.1348
107  11    0.1338
108  11    0.1297
109  11    0.1233
110  11    0.1156
111  11    0.1080
112  11    0.1012
113  11    0.0958
114  11    0.0921
115  11    0.0902
116  11    0.0903
117  11    0.0931
118  11    0.0996
119  11    0.1121
120  11    0.1332
121  11    0.1655
122  11    0.2104
123  11    0.2668
124  11    0.3307
125  11    0.3939
126  11    0.4462
127  11    0.4794
128  11    0.4880
  1  12    0.3403
  2  12    0.3130
  3  12    0.2752
  4  12    0.2338
  5  12    0.1949
  6  12    0.1624
  7  12    0.1379
  8  12    0.1214
  9  12    0.1117
 10  12    0.1073
 11  12    0.1073
 12  12    0.1115
 13  12    0.1203
 14  12    0.1347
 15  12    0.1557
 16  12    0.1834
 17  12    0.2167
 18  12    0.2525
 19  12    0.2861
 20  12    0.3119
 21  12    0.3249
 22  12    0.3229
 23  12    0.3067
 24  12    0.2801
 25  12    0.2486
 26  12    0.2176
 27  12    0.1911
 28  12    0.1712
 29  12    0.1583
 30  12    0.1518
 31  12    0.1501
 32  12    0.1518
 33  12    0.1555
 34  12    0.1597
 35  12    0.1634
 36  12    0.1655
 37  12    0.1654
 38  12    0.1626
 39  12    0.1572
 40  12    0.1499
 41  12    0.1417
 42  12    0.1345
 43  12    0.1308
 44  12    0.1338
 45  12    0.1486
 46  12    0.1820
 47  12    0.2421
 48  12    0.3369
 49  12    0.4658
 50  12    0.6142
 51  12    0.7570
 52  12    0.8675
 53  12    0.9333
 54  12    0.9620
 55  12    0.9729
 56  12    0.9767
 57  12    0.9768
 58  12    0.9725
 59  12    0.9576
 60  12    0.9139
 61  12    0.8178
 62  12    0.6747
 63  12    0.5112
 64  12    0.3618
 65  12    0.2475
 66  12    0.1724
 67  12    0.1281
 68  12    0.1050
 69  12    0.0950
 70  12    0.0931
 71  12    0.0977
 72  12    0.1099
 73  12    0.1324
 74  12    0.1688
 75  12    0.2213
 76  12    0.2906
 77  12    0.3732
 78  12    0.4603
 79  12    0.5414
 80  12    0.6076
 81  12    0.6523
 82  12    0.6720
 83  12    0.6653
 84  12    0.6323
 85  12    0.5747
 86  12    0.4979
 87  12    0.4105
 88  12    0.3232
 89  12    0.2469
 90  12    0.1873
 91  12    0.1448
 92  12    0.1173
 93  12    0.1012
 94  12    0.0926
 95  12    0.0887
 96  12    0.0875
 97  12    0.0882
 98  12    0.0903
 99  12    0.0937
100  12    0.0984
101  12    0.1042
102  12    0.1107
103  12    0.1171
104  12    0.1225
105  12    0.1260
106  12    0.1269
107  12    0.1249
108  12    0.1206
109  12    0.1146
110  12    0.1080
111  12    0.1017
112  12    0.0963
113  12    0.0921
114  12    0.0893
115  12    0.0878
116  12    0.0877
117  12    0.0894
118  12    0.0936
119  12    0.1015
120  12    0.1148
121  12    0.1353
122  12    0.1641
123  12    0.2007
124  12    0.2425
125  12    0.2848
126  12    0.3211
127  12    0.3450
128  12    0.3518
  1  13    0.2503
  2  13    0.2333
  3  13    0.2096
  4  13    0.1837
  5  13    0.1592
  6  13    0.1387
  7  13    0.1234
  8  13    0.1132
  9  13    0.1074
 10  13    0.1050
 11  13    0.1056
 12  13    0.1089
 13  13    0.1152
 14  13    0.1251
 15  13    0.1389
 16  13    0.1568
 17  13    0.1778
 18  13    0.2002
 19  13    0.2213
 20  13    0.2378
 21  13    0.2472
 22  13    0.2483
 23  13    0.2419
 24  13    0.2304
 25  13    0.2173
 26  13    0.2057
 27  13    0.1979
 28  13    0.1950
 29  13    0.1968
 30  13    0.2026
 31  13    0.2112
 32  13    0.2213
 33  13    0.2316
 34  13    0.2408
 35  13    0.2476
 36  13    0.2509
 37  13    0.2496
 38  13    0.2433
 39  13    0.2319
 40  13    0.2163
 41  13    0.1982
 42  13    0.1802
 43  13    0.1653
 44  13    0.1572
 45  13    0.1603
 46  13    0.1798
 47  13    0.2223
 48  13    0.2946
 49  13    0.3996
 50  13    0.5289
 51  13    0.6657
 52  13    0.7867
 53  13    0.8758
 54  13    0.9285
 55  13    0.9533
 56  13    0.9629
 57  13    0.9638
 58  13    0.9551
 59  13    0.9277
 60  13    0.8630
 61  13    0.7526
 62  13    0.6077
 63  13    0.4560
 64  13    0.3232
 65  13    0.2250
 66  13    0.1612
 67  13    0.1239
 68  13    0.1048
 69  13    0.0974
 70  13    0.0983
 71  13    0.1072
 72  13    0.1269
 73  13    0.1617
 74  13    0.2159
 75  13    0.2925
 76  13    0.3900
 77  13    0.4987
 78  13    0.6056
 79  13    0.6980
 80  13    0.7662
 81  13    0.8083
 82  13    0.8256
 83  13    0.8189
 84  13    0.7873
 85  13    0.7287
 86  13    0.6430
 87  13    0.5375
 88  13    0.4254
 89  13    0.3209
 90  13    0.2359
 91  13    0.1744
 92  13    0.1338
 93  13    0.1097
 94  13    0.0968
 95  13    0.0909
 96  13    0.0891
 97  13    0.0900
 98  13    0.0929
 99  13    0.0977
100  13    0.1043
101  13    0.1121
102  13    0.1206
103  13    0.1287
104  13    0.1350
105  13    0.1385
106  13    0.1384
107  13    0.1348
108  13    0.1284
109  13    0.1203
110  13    0.1117
111  13    0.1038
112  13    0.0973
113  13    0.0924
114  13    0.0891
115  13    0.0872
116  13    0.0866
117  13    0.0874
118  13    0.0899
119  13    0.0949
120  13    0.1032
121  13    0.1162
122  13    0.1344
123  13    0.1579
124  13    0.1848
125  13    0.2122
126  13    0.2360