variables =  "IG"  "JG"  "PHI"
 ZONE I=         128 J=          128
  1   1    0.9412
  2   1    0.8955
  3   1    0.8060
  4   1    0.6763
  5   1    0.5257
  6   1    0.3834
  7   1    0.2693
  8   1    0.1915
  9   1    0.1451
 10   1    0.1228
 11   1    0.1200
 12   1    0.1364
 13   1    0.1778
 14   1    0.2536
 15   1    0.3724
 16   1    0.5295
 17   1    0.7009
 18   1    0.8461
 19   1    0.9351
 20   1    0.9691
 21   1    0.9792
 22   1    0.9818
 23   1    0.9819
 24   1    0.9795
 25   1    0.9713
 26   1    0.9436
 27   1    0.8682
 28   1    0.7358
 29   1    0.5706
 30   1    0.4115
 31   1    0.2844
 32   1    0.1986
 33   1    0.1470
 34   1    0.1191
 35   1    0.1055
 36   1    0.0999
 37   1    0.0984
 38   1    0.0989
 39   1    0.1005
 40   1    0.1028
 41   1    0.1057
 42   1    0.1098
 43   1    0.1159
 44   1    0.1254
 45   1    0.1403
 46   1    0.1629
 47   1    0.1952
 48   1    0.2383
 49   1    0.2913
 50   1    0.3507
 51   1    0.4100
 52   1    0.4623
 53   1    0.5022
 54   1    0.5267
 55   1    0.5343
 56   1    0.5249
 57   1    0.4993
 58   1    0.4593
 59   1    0.4080
 60   1    0.3503
 61   1    0.2922
 62   1    0.2395
 63   1    0.1958
 64   1    0.1619
 65   1    0.1372
 66   1    0.1202
 67   1    0.1089
 68   1    0.1015
 69   1    0.0971
 70   1    0.0950
 71   1    0.0957
 72   1    0.1002
 73   1    0.1108
 74   1    0.1310
 75   1    0.1651
 76   1    0.2170
 77   1    0.2893
 78   1    0.3804
 79   1    0.4821
 80   1    0.5824
 81   1    0.6698
 82   1    0.7350
 83   1    0.7740
 84   1    0.7862
 85   1    0.7708
 86   1    0.7260
 87   1    0.6514
 88   1    0.5530
 89   1    0.4444
 90   1    0.3405
 91   1    0.2547
 92   1    0.1925
 93   1    0.1525
 94   1    0.1310
 95   1    0.1255
 96   1    0.1364
 97   1    0.1688
 98   1    0.2315
 99   1    0.3347
100   1    0.4803
101   1    0.6501
102   1    0.8079
103   1    0.9167
104   1    0.9637
105   1    0.9779
106   1    0.9814
107   1    0.9808
108   1    0.9762
109   1    0.9607
110   1    0.9157
111   1    0.8166
112   1    0.6716
113   1    0.5099
114   1    0.3660
115   1    0.2603
116   1    0.1973
117   1    0.1712
118   1    0.1775
119   1    0.2163
120   1    0.2916
121   1    0.4057
122   1    0.5482
123   1    0.6973
124   1    0.8227
125   1    0.9060
126   1    0.9458
127   1    0.9593
128   1    0.9580
  1   2    0.9681
  2   2    0.9422
  3   2    0.8749
  4   2    0.7549
  5   2    0.5993
  6   2    0.4417
  7   2    0.3094
  8   2    0.2166
  9   2    0.1604
 10   2    0.1329
 11   2    0.1281
 12   2    0.1453
 13   2    0.1897
 14   2    0.2707
 15   2    0.3962
 16   2    0.5580
 17   2    0.7292
 18   2    0.8676
 19   2    0.9453
 20   2    0.9725
 21   2    0.9800
 22   2    0.9815
 23   2    0.9806
 24   2    0.9761
 25   2    0.9616
 26   2    0.9190
 27   2    0.8230
 28   2    0.6798
 29   2    0.5167
 30   2    0.3683
 31   2    0.2548
 32   2    0.1803
 33   2    0.1362
 34   2    0.1128
 35   2    0.1018
 36   2    0.0975
 37   2    0.0966
 38   2    0.0974
 39   2    0.0993
 40   2    0.1021
 41   2    0.1059
 42   2    0.1116
 43   2    0.1206
 44   2    0.1350
 45   2    0.1578
 46   2    0.1925
 47   2    0.2421
 48   2    0.3082
 49   2    0.3879
 50   2    0.4731
 51   2    0.5536
 52   2    0.6211
 53   2    0.6698
 54   2    0.6980
 55   2    0.7061
 56   2    0.6950
 57   2    0.6647
 58   2    0.6154
 59   2    0.5491
 60   2    0.4706
 61   2    0.3871
 62   2    0.3074
 63   2    0.2395
 64   2    0.1870
 65   2    0.1492
 66   2    0.1239
 67   2    0.1081
 68   2    0.0987
 69   2    0.0934
 70   2    0.0909
 71   2    0.0907
 72   2    0.0932
 73   2    0.0998
 74   2    0.1126
 75   2    0.1348
 76   2    0.1695
 77   2    0.2189
 78   2    0.2833
 79   2    0.3597
 80   2    0.4403
 81   2    0.5151
 82   2    0.5752
 83   2    0.6140
 84   2    0.6271
 85   2    0.6127
 86   2    0.5714
 87   2    0.5073
 88   2    0.4281
 89   2    0.3448
 90   2    0.2689
 91   2    0.2082
 92   2    0.1646
 93   2    0.1369
 94   2    0.1229
 95   2    0.1214
 96   2    0.1341
 97   2    0.1664
 98   2    0.2272
 99   2    0.3265
100   2    0.4666
101   2    0.6315
102   2    0.7885
103   2    0.9021
104   2    0.9563
105   2    0.9742
106   2    0.9781
107   2    0.9760
108   2    0.9661
109   2    0.9375
110   2    0.8681
111   2    0.7499
112   2    0.5993
113   2    0.4472
114   2    0.3197
115   2    0.2312
116   2    0.1817
117   2    0.1659
118   2    0.1815
119   2    0.2313
120   2    0.3215
121   2    0.4529
122   2    0.6106
123   2    0.7654
124   2    0.8832
125   2    0.9466
126   2    0.9699
127   2    0.9767
128   2    0.9762
  1   3    0.9775
  2   3    0.9621
  3   3    0.9141
  4   3    0.8072
  5   3    0.6536
  6   3    0.4869
  7   3    0.3421
  8   3    0.2375
  9   3    0.1735
 10   3    0.1415
 11   3    0.1347
 12   3    0.1517
 13   3    0.1970
 14   3    0.2796
 15   3    0.4065
 16   3    0.5685
 17   3    0.7378
 18   3    0.8729
 19   3    0.9470
 20   3    0.9726
 21   3    0.9794
 22   3    0.9800
 23   3    0.9771
 24   3    0.9677
 25   3    0.9404
 26   3    0.8729
 27   3    0.7559
 28   3    0.6049
 29   3    0.4503
 30   3    0.3179
 31   3    0.2219
 32   3    0.1606
 33   3    0.1253
 34   3    0.1071
 35   3    0.0989
 36   3    0.0960
 37   3    0.0959
 38   3    0.0972
 39   3    0.0996
 40   3    0.1029
 41   3    0.1077
 42   3    0.1152
 43   3    0.1273
 44   3    0.1472
 45   3    0.1790
 46   3    0.2277
 47   3    0.2976
 48   3    0.3896
 49   3    0.4959
 50   3    0.6040
 51   3    0.6998
 52   3    0.7722
 53   3    0.8194
 54   3    0.8445
 55   3    0.8513
 56   3    0.8416
 57   3    0.8147
 58   3    0.7678
 59   3    0.6983
 60   3    0.6073
 61   3    0.5031
 62   3    0.3973
 63   3    0.3020
 64   3    0.2262
 65   3    0.1716
 66   3    0.1353
 67   3    0.1129
 68   3    0.1001
 69   3    0.0931
 70   3    0.0897
 71   3    0.0886
 72   3    0.0896
 73   3    0.0934
 74   3    0.1010
 75   3    0.1146
 76   3    0.1363
 77   3    0.1681
 78   3    0.2104
 79   3    0.2619
 80   3    0.3188
 81   3    0.3746
 82   3    0.4216
 83   3    0.4530
 84   3    0.4642
 85   3    0.4535
 86   3    0.4220
 87   3    0.3743
 88   3    0.3176
 89   3    0.2606
 90   3    0.2102
 91   3    0.1702
 92   3    0.1416
 93   3    0.1239
 94   3    0.1157
 95   3    0.1171
 96   3    0.1303
 97   3    0.1607
 98   3    0.2165
 99   3    0.3070
100   3    0.4359
101   3    0.5907
102   3    0.7449
103   3    0.8651
104   3    0.9342
105   3    0.9607
106   3    0.9668
107   3    0.9611
108   3    0.9394
109   3    0.8870
110   3    0.7920
111   3    0.6608
112   3    0.5137
113   3    0.3777
114   3    0.2710
115   3    0.2011
116   3    0.1649
117   3    0.1585
118   3    0.1819
119   3    0.2401
120   3    0.3408
121   3    0.4835
122   3    0.6503
123   3    0.8057
124   3    0.9142
125   3    0.9626
126   3    0.9780
127   3    0.9819
128   3    0.9818
  1   4    0.9804
  2   4    0.9691
  3   4    0.9306
  4   4    0.8336
  5   4    0.6832
  6   4    0.5130
  7   4    0.3620
  8   4    0.2509
  9   4    0.1823
 10   4    0.1474
 11   4    0.1390
 12   4    0.1547
 13   4    0.1986
 14   4    0.2788
 15   4    0.4019
 16   4    0.5592
 17   4    0.7252
 18   4    0.8603
 19   4    0.9391
 20   4    0.9681
 21   4    0.9759
 22   4    0.9753
 23   4    0.9680
 24   4    0.9471
 25   4    0.8958
 26   4    0.8001
 27   4    0.6670
 28   4    0.5172
 29   4    0.3776
 30   4    0.2661
 31   4    0.1893
 32   4    0.1417
 33   4    0.1151
 34   4    0.1020
 35   4    0.0965
 36   4    0.0950
 37   4    0.0957
 38   4    0.0976
 39   4    0.1005
 40   4    0.1045
 41   4    0.1103
 42   4    0.1195
 43   4    0.1347
 44   4    0.1600
 45   4    0.2009
 46   4    0.2640
 47   4    0.3546
 48   4    0.4704
 49   4    0.5991
 50   4    0.7220
 51   4    0.8195
 52   4    0.8842
 53   4    0.9194
 54   4    0.9347
 55   4    0.9384
 56   4    0.9332
 57   4    0.9170
 58   4    0.8839
 59   4    0.8257
 60   4    0.7388
 61   4    0.6255
 62   4    0.4995
 63   4    0.3785
 64   4    0.2770
 65   4    0.2024
 66   4    0.1524
 67   4    0.1217
 68   4    0.1042
 69   4    0.0948
 70   4    0.0901
 71   4    0.0882
 72   4    0.0881
 73   4    0.0900
 74   4    0.0944
 75   4    0.1024
 76   4    0.1154
 77   4    0.1349
 78   4    0.1614
 79   4    0.1942
 80   4    0.2309
 81   4    0.2678
 82   4    0.2997
 83   4    0.3216
 84   4    0.3298
 85   4    0.3227
 86   4    0.3016
 87   4    0.2703
 88   4    0.2341
 89   4    0.1983
 90   4    0.1669
 91   4    0.1420
 92   4    0.1245
 93   4    0.1139
 94   4    0.1099
 95   4    0.1129
 96   4    0.1255
 97   4    0.1524
 98   4    0.2009
 99   4    0.2789
100   4    0.3913
101   4    0.5299
102   4    0.6747
103   4    0.7976
104   4    0.8806
105   4    0.9214
106   4    0.9311
107   4    0.9173
108   4    0.8754
109   4    0.7987
110   4    0.6880
111   4    0.5553
112   4    0.4226
113   4    0.3084
114   4    0.2248
115   4    0.1727
116   4    0.1484
117   4    0.1497
118   4    0.1782
119   4    0.2409
120   4    0.3463
121   4    0.4939
122   4    0.6643
123   4    0.8197
124   4    0.9240
125   4    0.9671
126   4    0.9800
127   4    0.9833
128   4    0.9834
  1   5    0.9804
  2   5    0.9691
  3   5    0.9311
  4   5    0.8352
  5   5    0.6860
  6   5    0.5166
  7   5    0.3658
  8   5    0.2544
  9   5    0.1852
 10   5    0.1497
 11   5    0.1403
 12   5    0.1542
 13   5    0.1945
 14   5    0.2685
 15   5    0.3826
 16   5    0.5301
 17   5    0.6894
 18   5    0.8258
 19   5    0.9149
 20   5    0.9536
 21   5    0.9642
 22   5    0.9607
 23   5    0.9428
 24   5    0.8993
 25   5    0.8181
 26   5    0.7015
 27   5    0.5625
 28   5    0.4245
 29   5    0.3059
 30   5    0.2180
 31   5    0.1598
 32   5    0.1250
 33   5    0.1064
 34   5    0.0978
 35   5    0.0947
 36   5    0.0945
 37   5    0.0960
 38   5    0.0985
 39   5    0.1018
 40   5    0.1064
 41   5    0.1131
 42   5    0.1237
 43   5    0.1416
 44   5    0.1714
 45   5    0.2200
 46   5    0.2955
 47   5    0.4032
 48   5    0.5372
 49   5    0.6811
 50   5    0.8077
 51   5    0.8971
 52   5    0.9436
 53   5    0.9624
 54   5    0.9691
 55   5    0.9705
 56   5    0.9685
 57   5    0.9621
 58   5    0.9468
 59   5    0.9118
 60   5    0.8429
 61   5    0.7364
 62   5    0.6013
 63   5    0.4602
 64   5    0.3346
 65   5    0.2385
 66   5    0.1734
 67   5    0.1330
 68   5    0.1100
 69   5    0.0977
 70   5    0.0916
 71   5    0.0888
 72   5    0.0880
 73   5    0.0888
 74   5    0.0913
 75   5    0.0962
 76   5    0.1042
 77   5    0.1163
 78   5    0.1329
 79   5    0.1535
 80   5    0.1768
 81   5    0.2002
 82   5    0.2203
 83   5    0.2340
 84   5    0.2389
 85   5    0.2341
 86   5    0.2207
 87   5    0.2012
 88   5    0.1789
 89   5    0.1571
 90   5    0.1380
 91   5    0.1232
 92   5    0.1129
 93   5    0.1070
 94   5    0.1055
 95   5    0.1092
 96   5    0.1203
 97   5    0.1429
 98   5    0.1828
 99   5    0.2463
100   5    0.3383
101   5    0.4552
102   5    0.5819
103   5    0.6983
104   5    0.7845
105   5    0.8328
106   5    0.8443
107   5    0.8216
108   5    0.7652
109   5    0.6770
110   5    0.5649
111   5    0.4455
112   5    0.3348
113   5    0.2462
114   5    0.1846
115   5    0.1480
116   5    0.1335
117   5    0.1399
118   5    0.1706
119   5    0.2333
120   5    0.3371
121   5    0.4827
122   5    0.6519
123   5    0.8087
124   5    0.9171
125   5    0.9643
126   5    0.9790
127   5    0.9829
128   5    0.9832
  1   6    0.9764
  2   6    0.9611
  3   6    0.9143
  4   6    0.8107
  5   6    0.6609
  6   6    0.4968
  7   6    0.3528
  8   6    0.2475
  9   6    0.1821
 10   6    0.1483
 11   6    0.1387
 12   6    0.1504
 13   6    0.1857
 14   6    0.2506
 15   6    0.3510
 16   6    0.4836
 17   6    0.6307
 18   6    0.7652
 19   6    0.8620
 20   6    0.9139
 21   6    0.9294
 22   6    0.9191
 23   6    0.8817
 24   6    0.8116
 25   6    0.7095
 26   6    0.5839
 27   6    0.4535
 28   6    0.3354
 29   6    0.2421
 30   6    0.1768
 31   6    0.1352
 32   6    0.1115
 33   6    0.0996
 34   6    0.0946
 35   6    0.0936
 36   6    0.0947
 37   6    0.0969
 38   6    0.0999
 39   6    0.1037
 40   6    0.1087
 41   6    0.1160
 42   6    0.1275
 43   6    0.1469
 44   6    0.1795
 45   6    0.2329
 46   6    0.3162
 47   6    0.4341
 48   6    0.5788
 49   6    0.7297
 50   6    0.8551
 51   6    0.9329
 52   6    0.9651
 53   6    0.9757
 54   6    0.9789
 55   6    0.9796
 56   6    0.9790
 57   6    0.9765
 58   6    0.9704
 59   6    0.9538
 60   6    0.9105
 61   6    0.8213
 62   6    0.6897
 63   6    0.5364
 64   6    0.3917
 65   6    0.2757
 66   6    0.1956
 67   6    0.1455
 68   6    0.1167
 69   6    0.1014
 70   6    0.0937
 71   6    0.0901
 72   6    0.0888
 73   6    0.0891
 74   6    0.0909
 75   6    0.0945
 76   6    0.1004
 77   6    0.1092
 78   6    0.1209
 79   6    0.1354
 80   6    0.1514
 81   6    0.1670
 82   6    0.1799
 83   6    0.1881
 84   6    0.1901
 85   6    0.1857
 86   6    0.1758
 87   6    0.1623
 88   6    0.1474
 89   6    0.1332
 90   6    0.1212
 91   6    0.1120
 92   6    0.1058
 93   6    0.1026
 94   6    0.1025
 95   6    0.1061
 96   6    0.1154
 97   6    0.1334
 98   6    0.1645
 99   6    0.2135
100   6    0.2841
101   6    0.3756
102   6    0.4783
103   6    0.5765
104   6    0.6546
105   6    0.7005
106   6    0.7098
107   6    0.6828
108   6    0.6231
109   6    0.5383
110   6    0.4405
111   6    0.3431
112   6    0.2590
113   6    0.1952
114   6    0.1523
115   6    0.1282
116   6    0.1207
117   6    0.1299
118   6    0.1598
119   6    0.2183
120   6    0.3144
121   6    0.4512
122   6    0.6137
123   6    0.7719
124   6    0.8904
125   6    0.9516
126   6    0.9733
127   6    0.9797
128   6    0.9805
  1   7    0.9626
  2   7    0.9366
  3   7    0.8716
  4   7    0.7575
  5   7    0.6086
  6   7    0.4556
  7   7    0.3252
  8   7    0.2316
  9   7    0.1737
 10   7    0.1436
 11   7    0.1348
 12   7    0.1444
 13   7    0.1740
 14   7    0.2282
 15   7    0.3121
 16   7    0.4251
 17   7    0.5539
 18   7    0.6785
 19   7    0.7753
 20   7    0.8324
 21   7    0.8493
 22   7    0.8296
 23   7    0.7758
 24   7    0.6902
 25   7    0.5808
 26   7    0.4629
 27   7    0.3512
 28   7    0.2584
 29   7    0.1901
 30   7    0.1442
 31   7    0.1165
 32   7    0.1016
 33   7    0.0949
 34   7    0.0929
 35   7    0.0936
 36   7    0.0958
 37   7    0.0989
 38   7    0.1026
 39   7    0.1068
 40   7    0.1121
 41   7    0.1194
 42   7    0.1310
 43   7    0.1503
 44   7    0.1831
 45   7    0.2372
 46   7    0.3218
 47   7    0.4417
 48   7    0.5886
 49   7    0.7410
 50   7    0.8659
 51   7    0.9404
 52   7    0.9692
 53   7    0.9783
 54   7    0.9810
 55   7    0.9817
 56   7    0.9816
 57   7    0.9808
 58   7    0.9782
 59   7    0.9700
 60   7    0.9445
 61   7    0.8767
 62   7    0.7548
 63   7    0.5979
 64   7    0.4404
 65   7    0.3090
 66   7    0.2160
 67   7    0.1573
 68   7    0.1234
 69   7    0.1052
 70   7    0.0961
 71   7    0.0919
 72   7    0.0905
 73   7    0.0910
 74   7    0.0931
 75   7    0.0971
 76   7    0.1034
 77   7    0.1122
 78   7    0.1237
 79   7    0.1370
 80   7    0.1509
 81   7    0.1635
 82   7    0.1730
 83   7    0.1776
 84   7    0.1767
 85   7    0.1705
 86   7    0.1602
 87   7    0.1477
 88   7    0.1348
 89   7    0.1232
 90   7    0.1137
 91   7    0.1068
 92   7    0.1024
 93   7    0.1003
 94   7    0.1006
 95   7    0.1037
 96   7    0.1111
 97   7    0.1248
 98   7    0.1481
 99   7    0.1841
100   7    0.2354
101   7    0.3017
102   7    0.3780
103   7    0.4531
104   7    0.5138
105   7    0.5497
106   7    0.5549
107   7    0.5289
108   7    0.4767
109   7    0.4067
110   7    0.3303
111   7    0.2588
112   7    0.2000
113   7    0.1566
114   7    0.1283
115   7    0.1134
116   7    0.1105
117   7    0.1203
118   7    0.1470
119   7    0.1980
120   7    0.2817
121   7    0.4031
122   7    0.5525
123   7    0.7074
124   7    0.8356
125   7    0.9181
126   7    0.9556
127   7    0.9686
128   7    0.9703
  1   8    0.9209
  2   8    0.8767
  3   8    0.7937
  4   8    0.6740
  5   8    0.5336
  6   8    0.3984
  7   8    0.2874
  8   8    0.2097
  9   8    0.1617
 10   8    0.1368
 11   8    0.1295
 12   8    0.1373
 13   8    0.1613
 14   8    0.2048
 15   8    0.2716
 16   8    0.3627
 17   8    0.4693
 18   8    0.5752
 19   8    0.6623
 20   8    0.7153
 21   8    0.7283
 22   8    0.7019
 23   8    0.6405
 24   8    0.5530
 25   8    0.4526
 26   8    0.3527
 27   8    0.2656
 28   8    0.1982
 29   8    0.1509
 30   8    0.1207
 31   8    0.1036
 32   8    0.0953
 33   8    0.0925
 34   8    0.0930
 35   8    0.0954
 36   8    0.0990
 37   8    0.1032
 38   8    0.1077
 39   8    0.1124
 40   8    0.1176
 41   8    0.1245
 42   8    0.1350
 43   8    0.1526
 44   8    0.1827
 45   8    0.2327
 46   8    0.3117
 47   8    0.4249
 48   8    0.5656
 49   8    0.7150
 50   8    0.8426
 51   8    0.9257
 52   8    0.9623
 53   8    0.9752
 54   8    0.9795
 55   8    0.9812
 56   8    0.9817
 57   8    0.9816
 58   8    0.9805
 59   8    0.9756
 60   8    0.9584
 61   8    0.9054
 62   8    0.7934
 63   8    0.6378
 64   8    0.4737
 65   8    0.3330
 66   8    0.2314
 67   8    0.1668
 68   8    0.1290
 69   8    0.1088
 70   8    0.0987
 71   8    0.0943
 72   8    0.0933
 73   8    0.0946
 74   8    0.0983
 75   8    0.1047
 76   8    0.1141
 77   8    0.1269
 78   8    0.1424
 79   8    0.1595
 80   8    0.1761
 81   8    0.1899
 82   8    0.1987
 83   8    0.2008
 84   8    0.1961
 85   8    0.1853
 86   8    0.1705
 87   8    0.1540
 88   8    0.1381
 89   8    0.1244
 90   8    0.1138
 91   8    0.1064
 92   8    0.1018
 93   8    0.0996
 94   8    0.0996
 95   8    0.1020
 96   8    0.1076
 97   8    0.1178
 98   8    0.1347
 99   8    0.1604
100   8    0.1961
101   8    0.2417
102   8    0.2938
103   8    0.3458
104   8    0.3882
105   8    0.4125
106   8    0.4137
107   8    0.3917
108   8    0.3508
109   8    0.2991
110   8    0.2453
111   8    0.1968
112   8    0.1577
113   8    0.1295
114   8    0.1118
115   8    0.1031
116   8    0.1026
117   8    0.1115
118   8    0.1337
119   8    0.1753
120   8    0.2437
121   8    0.3447
122   8    0.4745
123   8    0.6167
124   8    0.7479
125   8    0.8465
126   8    0.9060
127   8    0.9323
128   8    0.9365
  1   9    0.8261
  2   9    0.7702
  3   9    0.6811
  4   9    0.5666
  5   9    0.4449
  6   9    0.3334
  7   9    0.2458
  8   9    0.1854
  9   9    0.1483
 10   9    0.1293
 11   9    0.1240
 12   9    0.1305
 13   9    0.1496
 14   9    0.1837
 15   9    0.2354
 16   9    0.3054
 17   9    0.3888
 18   9    0.4732
 19   9    0.5430
 20   9    0.5850
 21   9    0.5915
 22   9    0.5621
 23   9    0.5031
 24   9    0.4255
 25   9    0.3418
 26   9    0.2645
 27   9    0.2016
 28   9    0.1550
 29   9    0.1239
 30   9    0.1053
 31   9    0.0959
 32   9    0.0924
 33   9    0.0928
 34   9    0.0958
 35   9    0.1005
 36   9    0.1061
 37   9    0.1121
 38   9    0.1179
 39   9    0.1231
 40   9    0.1280
 41   9    0.1335
 42   9    0.1416
 43   9    0.1555
 44   9    0.1800
 45   9    0.2218
 46   9    0.2890
 47   9    0.3875
 48   9    0.5138
 49   9    0.6541
 50   9    0.7841
 51   9    0.8820
 52   9    0.9383
 53   9    0.9632
 54   9    0.9733
 55   9    0.9777
 56   9    0.9798
 57   9    0.9805
 58   9    0.9800
 59   9    0.9760
 60   9    0.9608
 61   9    0.9124
 62   9    0.8050
 63   9    0.6519
 64   9    0.4870
 65   9    0.3439
 66   9    0.2393
 67   9    0.1723
 68   9    0.1330
 69   9    0.1118
 70   9    0.1015
 71   9    0.0975
 72   9    0.0975
 73   9    0.1009
 74   9    0.1079
 75   9    0.1194
 76   9    0.1357
 77   9    0.1569
 78   9    0.1818
 79   9    0.2080
 80   9    0.2324
 81   9    0.2514
 82   9    0.2618
 83   9    0.2617
 84   9    0.2512
 85   9    0.2320
 86   9    0.2076
 87   9    0.1816
 88   9    0.1572
 89   9    0.1367
 90   9    0.1212
 91   9    0.1104
 92   9    0.1038
 93   9    0.1003
 94   9    0.0995
 95   9    0.1010
 96   9    0.1051
 97   9    0.1127
 98   9    0.1249
 99   9    0.1431
100   9    0.1678
101   9    0.1985
102   9    0.2327
103   9    0.2662
104   9    0.2930
105   9    0.3072
106   9    0.3056
107   9    0.2883
108   9    0.2590
109   9    0.2233
110   9    0.1873
111   9    0.1553
112   9    0.1300
113   9    0.1121
114   9    0.1012
115   9    0.0963
116   9    0.0969
117   9    0.1041
118   9    0.1212
119   9    0.1530
120   9    0.2056
121   9    0.2838
122   9    0.3885
123   9    0.5096
124   9    0.6306
125   9    0.7331
126   9    0.8044
127   9    0.8425
128   9    0.8496
  1  10    0.6852
  2  10    0.6290
  3  10    0.5472
  4  10    0.4511
  5  10    0.3543
  6  10    0.2700
  7  10    0.2059
  8  10    0.1621
  9  10    0.1354
 10  10    0.1220
 11  10    0.1190
 12  10    0.1250
 13  10    0.1405
 14  10    0.1674
 15  10    0.2073
 16  10    0.2604
 17  10    0.3235
 18  10    0.3878
 19  10    0.4406
 20  10    0.4704
 21  10    0.4706
 22  10    0.4412
 23  10    0.3889
 24  10    0.3244
 25  10    0.2594
 26  10    0.2027
 27  10    0.1584
 28  10    0.1271
 29  10    0.1075
 30  10    0.0969
 31  10    0.0929
 32  10    0.0933
 33  10    0.0971
 34  10    0.1035
 35  10    0.1118
 36  10    0.1209
 37  10    0.1299
 38  10    0.1377
 39  10    0.1435
 40  10    0.1474
 41  10    0.1502
 42  10    0.1540
 43  10    0.1619
 44  10    0.1781
 45  10    0.2084
 46  10    0.2595
 47  10    0.3374
 48  10    0.4424
 49  10    0.5653
 50  10    0.6911
 51  10    0.7997
 52  10    0.8797
 53  10    0.9288
 54  10    0.9541
 55  10    0.9666
 56  10    0.9728
 57  10    0.9757
 58  10    0.9756
 59  10    0.9708
 60  10    0.9525
 61  10    0.8985
 62  10    0.7891
 63  10    0.6384
 64  10    0.4784
 65  10    0.3399
 66  10    0.2385
 67  10    0.1733
 68  10    0.1348
 69  10    0.1142
 70  10    0.1044
 71  10    0.1015
 72  10    0.1037
 73  10    0.1108
 74  10    0.1239
 75  10    0.1442
 76  10    0.1723
 77  10    0.2078
 78  10    0.2482
 79  10    0.2899
 80  10    0.3275
 81  10    0.3553
 82  10    0.3692
 83  10    0.3666
 84  10    0.3479
 85  10    0.3160
 86  10    0.2759
 87  10    0.2336
 88  10    0.1943
 89  10    0.1615
 90  10    0.1365
 91  10    0.1192
 92  10    0.1084
 93  10    0.1025
 94  10    0.1002
 95  10    0.1007
 96  10    0.1036
 97  10    0.1094
 98  10    0.1187
 99  10    0.1321
100  10    0.1499
101  10    0.1714
102  10    0.1947
103  10    0.2164
104  10    0.2328
105  10    0.2403
106  10    0.2370
107  10    0.2233
108  10    0.2019
109  10    0.1768
110  10    0.1519
111  10    0.1303
112  10    0.1136
113  10    0.1020
114  10    0.0950
115  10    0.0920
116  10    0.0928
117  10    0.0982
118  10    0.1105
119  10    0.1333
120  10    0.1712
121  10    0.2282
122  10    0.3057
123  10    0.4003
124  10    0.5001
125  10    0.5913
126  10    0.6614
127  10    0.7020
128  10    0.7100
  1  11    0.5267
  2  11    0.4805
  3  11    0.4161
  4  11    0.3436
  5  11    0.2740
  6  11    0.2157
  7  11    0.1719
  8  11    0.1421
  9  11    0.1244
 10  11    0.1161
 11  11    0.1152
 12  11    0.1212
 13  11    0.1348
 14  11    0.1571
 15  11    0.1894
 16  11    0.2314
 17  11    0.2803
 18  11    0.3296
 19  11    0.3693
 20  11    0.3897
 21  11    0.3851
 22  11    0.3567
 23  11    0.3111
 24  11    0.2583
 25  11    0.2078
 26  11    0.1652
 27  11    0.1331
 28  11    0.1118
 29  11    0.0996
 30  11    0.0945
 31  11    0.0948
 32  11    0.0994
 33  11    0.1080
 34  11    0.1199
 35  11    0.1342
 36  11    0.1493
 37  11    0.1632
 38  11    0.1741
 39  11    0.1806
 40  11    0.1823
 41  11    0.1803
 42  11    0.1770
 43  11    0.1758
 44  11    0.1810
 45  11    0.1973
 46  11    0.2301
 47  11    0.2844
 48  11    0.3630
 49  11    0.4621
 50  11    0.5722
 51  11    0.6812
 52  11    0.7756
 53  11    0.8488
 54  11    0.9002
 55  11    0.9319
 56  11    0.9497
 57  11    0.9584
 58  11    0.9600
 59  11    0.9522
 60  11    0.9245
 61  11    0.8574
 62  11    0.7440
 63  11    0.5980
 64  11    0.4492
 65  11    0.3220
 66  11    0.2296
 67  11    0.1700
 68  11    0.1347
 69  11    0.1159
 70  11    0.1077
 71  11    0.1069
 72  11    0.1126
 73  11    0.1258
 74  11    0.1483
 75  11    0.1821
 76  11    0.2278
 77  11    0.2841
 78  11    0.3470
 79  11    0.4091
 80  11    0.4623
 81  11    0.4999
 82  11    0.5172
 83  11    0.5121
 84  11    0.4848
 85  11    0.4383
 86  11    0.3785
 87  11    0.3135
 88  11    0.2521
 89  11    0.2005
 90  11    0.1610
 91  11    0.1335
 92  11    0.1161
 93  11    0.1063
 94  11    0.1018
 95  11    0.1010
 96  11    0.1031
 97  11    0.1079
 98  11    0.1158
 99  11    0.1271
100  11    0.1418
101  11    0.1589
102  11    0.1769
103  11    0.1929
104  11    0.2041
105  11    0.2080
106  11    0.2034
107  11    0.1911
108  11    0.1734
109  11    0.1534
110  11    0.1341
111  11    0.1177
112  11    0.1053
113  11    0.0968
114  11    0.0918
115  11    0.0896
116  11    0.0901
117  11    0.0937
118  11    0.1021
119  11    0.1175
120  11    0.1433
121  11    0.1824
122  11    0.2361
123  11    0.3030
124  11    0.3773
125  11    0.4485
126  11    0.5057
127  11    0.5405
128  11    0.5478
  1  12    0.3851
  2  12    0.3517
  3  12    0.3065
  4  12    0.2575
  5  12    0.2118
  6  12    0.1739
  7  12    0.1457
  8  12    0.1268
  9  12    0.1160
 10  12    0.1117
 11  12    0.1130
 12  12    0.1197
 13  12    0.1327
 14  12    0.1534
 15  12    0.1824
 16  12    0.2195
 17  12    0.2618
 18  12    0.3036
 19  12    0.3363
 20  12    0.3512
 21  12    0.3437
 22  12    0.3154
 23  12    0.2734
 24  12    0.2269
 25  12    0.1836
 26  12    0.1481
 27  12    0.1226
 28  12    0.1068
 29  12    0.0991
 30  12    0.0982
 31  12    0.1031
 32  12    0.1137
 33  12    0.1298
 34  12    0.1507
 35  12    0.1748
 36  12    0.1994
 37  12    0.2212
 38  12    0.2368
 39  12    0.2437
 40  12    0.2414
 41  12    0.2314
 42  12    0.2169
 43  12    0.2025
 44  12    0.1930
 45  12    0.1929
 46  12    0.2065
 47  12    0.2375
 48  12    0.2884
 49  12    0.3594
 50  12    0.4463
 51  12    0.5411
 52  12    0.6357
 53  12    0.7214
 54  12    0.7923
 55  12    0.8466
 56  12    0.8843
 57  12    0.9060
 58  12    0.9122
 59  12    0.8997
 60  12    0.8596
 61  12    0.7828
 62  12    0.6697
 63  12    0.5352
 64  12    0.4038
 65  12    0.2939
 66  12    0.2147
 67  12    0.1634
 68  12    0.1329
 69  12    0.1171
 70  12    0.1114
 71  12    0.1139
 72  12    0.1249
 73  12    0.1467
 74  12    0.1825
 75  12    0.2348
 76  12    0.3042
 77  12    0.3871
 78  12    0.4745
 79  12    0.5556
 80  12    0.6216
 81  12    0.6658
 82  12    0.6850
 83  12    0.6780
 84  12    0.6445
 85  12    0.5862
 86  12    0.5083
 87  12    0.4197
 88  12    0.3315
 89  12    0.2548
 90  12    0.1955
 91  12    0.1538
 92  12    0.1271
 93  12    0.1118
 94  12    0.1043
 95  12    0.1020
 96  12    0.1034
 97  12    0.1082
 98  12    0.1162
 99  12    0.1278
100  12    0.1427
101  12    0.1600
102  12    0.1777
103  12    0.1930
104  12    0.2030
105  12    0.2054
106  12    0.1995
107  12    0.1863
108  12    0.1682
109  12    0.1485
110  12    0.1299
111  12    0.1144
112  12    0.1029
113  12    0.0952
114  12    0.0905
115  12    0.0884
116  12    0.0883
117  12    0.0906
118  12    0.0960
119  12    0.1060
120  12    0.1228
121  12    0.1484
122  12    0.1837
123  12    0.2280
124  12    0.2781
125  12    0.3278
126  12    0.3692
127  12    0.3950
128  12    0.4006
  1  13    0.2801
  2  13    0.2581
  3  13    0.2289
  4  13    0.1977
  5  13    0.1688
  6  13    0.1450
  7  13    0.1275
  8  13    0.1162
  9  13    0.1104
 10  13    0.1091
 11  13    0.1123
 12  13    0.1203
 13  13    0.1345
 14  13    0.1562
 15  13    0.1863
 16  13    0.2245
 17  13    0.2679
 18  13    0.3103
 19  13    0.3429
 20  13    0.3568
 21  13    0.3478
 22  13    0.3177
 23  13    0.2740
 24  13    0.2267
 25  13    0.1834
 26  13    0.1488
 27  13    0.1248
 28  13    0.1110
 29  13    0.1063
 30  13    0.1097
 31  13    0.1210
 32  13    0.1407
 33  13    0.1685
 34  13    0.2033
 35  13    0.2422
 36  13    0.2809
 37  13    0.3139
 38  13    0.3359
 39  13    0.3431
 40  13    0.3344
 41  13    0.3119
 42  13    0.2807
 43  13    0.2474
 44  13    0.2185
 45  13    0.1992
 46  13    0.1930
 47  13    0.2021
 48  13    0.2281
 49  13    0.2714
 50  13    0.3312
 51  13    0.4041
 52  13    0.4844
 53  13    0.5660
 54  13    0.6432
 55  13    0.7100
 56  13    0.7619
 57  13    0.7957
 58  13    0.8084
 59  13    0.7958
 60  13    0.7528
 61  13    0.6769
 62  13    0.5736
 63  13    0.4588
 64  13    0.3498
 65  13    0.2607
 66  13    0.1968
 67  13    0.1551
 68  13    0.1304
 69  13    0.1183
 70  13    0.1158
 71  13    0.1225
 72  13    0.1405
 73  13    0.1736
 74  13    0.2263
 75  13    0.3017
 76  13    0.3988
 77  13    0.5076
 78  13    0.6151
 79  13    0.7076
 80  13    0.7755
 81  13    0.8169
 82  13    0.8337
 83  13    0.8268
 84  13    0.7949
 85  13    0.7355
 86  13    0.6483
 87  13    0.5408
 88  13    0.4275
 89  13    0.3229
 90  13    0.2393
 91  13    0.1797
 92  13    0.1412
 93  13    0.1188
 94  13    0.1076
 95  13    0.1037
 96  13    0.1048
 97  13    0.1103
 98  13    0.1202
 99  13    0.1346
100  13    0.1533
101  13    0.1752
102  13    0.1976
103  13    0.2169
104  13    0.2295
105  13    0.2322
106  13    0.2244
107  13    0.2075
108  13    0.1848
109  13    0.1605
110  13    0.1378
111  13    0.1192
112  13    0.1055
113  13    0.0964
114  13    0.0909
115  13    0.0881
116  13    0.0874
117  13    0.0886
118  13    0.0920
119  13    0.0985
120  13    0.1093
121  13    0.1258
122  13    0.1487
123  13    0.1774
124  13    0.2099
125  13    0.2423
126  13    0.2695