variables =  "IG"  "JG"  "PHI"
 ZONE I=         128 J=          128
  1   1    0.9727
  2   1    0.9554
  3   1    0.9006
  4   1    0.7846
  5   1    0.6238
  6   1    0.4565
  7   1    0.3170
  8   1    0.2226
  9   1    0.1714
 10   1    0.1560
 11   1    0.1732
 12   1    0.2259
 13   1    0.3213
 14   1    0.4610
 15   1    0.6286
 16   1    0.7899
 17   1    0.9063
 18   1    0.9606
 19   1    0.9779
 20   1    0.9828
 21   1    0.9841
 22   1    0.9844
 23   1    0.9841
 24   1    0.9826
 25   1    0.9775
 26   1    0.9588
 27   1    0.9005
 28   1    0.7778
 29   1    0.6109
 30   1    0.4404
 31   1    0.2994
 32   1    0.2021
 33   1    0.1430
 34   1    0.1107
 35   1    0.0948
 36   1    0.0876
 37   1    0.0847
 38   1    0.0836
 39   1    0.0835
 40   1    0.0836
 41   1    0.0839
 42   1    0.0845
 43   1    0.0857
 44   1    0.0882
 45   1    0.0931
 46   1    0.1023
 47   1    0.1185
 48   1    0.1444
 49   1    0.1823
 50   1    0.2327
 51   1    0.2938
 52   1    0.3605
 53   1    0.4248
 54   1    0.4782
 55   1    0.5145
 56   1    0.5296
 57   1    0.5221
 58   1    0.4926
 59   1    0.4444
 60   1    0.3831
 61   1    0.3170
 62   1    0.2548
 63   1    0.2032
 64   1    0.1655
 65   1    0.1425
 66   1    0.1340
 67   1    0.1399
 68   1    0.1609
 69   1    0.1984
 70   1    0.2531
 71   1    0.3240
 72   1    0.4064
 73   1    0.4920
 74   1    0.5729
 75   1    0.6426
 76   1    0.6970
 77   1    0.7341
 78   1    0.7542
 79   1    0.7576
 80   1    0.7436
 81   1    0.7109
 82   1    0.6582
 83   1    0.5863
 84   1    0.5001
 85   1    0.4076
 86   1    0.3186
 87   1    0.2428
 88   1    0.1846
 89   1    0.1437
 90   1    0.1177
 91   1    0.1030
 92   1    0.0963
 93   1    0.0957
 94   1    0.1018
 95   1    0.1178
 96   1    0.1504
 97   1    0.2086
 98   1    0.3024
 99   1    0.4362
100   1    0.5972
101   1    0.7570
102   1    0.8802
103   1    0.9474
104   1    0.9721
105   1    0.9801
106   1    0.9827
107   1    0.9831
108   1    0.9822
109   1    0.9785
110   1    0.9669
111   1    0.9309
112   1    0.8436
113   1    0.7064
114   1    0.5467
115   1    0.4014
116   1    0.2927
117   1    0.2287
118   1    0.2059
119   1    0.2213
120   1    0.2764
121   1    0.3745
122   1    0.5104
123   1    0.6656
124   1    0.8075
125   1    0.9075
126   1    0.9554
127   1    0.9720
128   1    0.9761
  1   2    0.9757
  2   2    0.9600
  3   2    0.9091
  4   2    0.7962
  5   2    0.6365
  6   2    0.4680
  7   2    0.3265
  8   2    0.2300
  9   2    0.1775
 10   2    0.1618
 11   2    0.1797
 12   2    0.2344
 13   2    0.3332
 14   2    0.4765
 15   2    0.6464
 16   2    0.8060
 17   2    0.9170
 18   2    0.9649
 19   2    0.9794
 20   2    0.9833
 21   2    0.9843
 22   2    0.9845
 23   2    0.9843
 24   2    0.9830
 25   2    0.9784
 26   2    0.9614
 27   2    0.9059
 28   2    0.7853
 29   2    0.6179
 30   2    0.4451
 31   2    0.3016
 32   2    0.2023
 33   2    0.1420
 34   2    0.1091
 35   2    0.0928
 36   2    0.0854
 37   2    0.0822
 38   2    0.0809
 39   2    0.0805
 40   2    0.0806
 41   2    0.0810
 42   2    0.0820
 43   2    0.0841
 44   2    0.0883
 45   2    0.0964
 46   2    0.1115
 47   2    0.1376
 48   2    0.1785
 49   2    0.2370
 50   2    0.3132
 51   2    0.4024
 52   2    0.4941
 53   2    0.5774
 54   2    0.6433
 55   2    0.6859
 56   2    0.7030
 57   2    0.6943
 58   2    0.6598
 59   2    0.6007
 60   2    0.5218
 61   2    0.4318
 62   2    0.3414
 63   2    0.2624
 64   2    0.2017
 65   2    0.1606
 66   2    0.1375
 67   2    0.1301
 68   2    0.1366
 69   2    0.1562
 70   2    0.1890
 71   2    0.2342
 72   2    0.2900
 73   2    0.3528
 74   2    0.4167
 75   2    0.4756
 76   2    0.5249
 77   2    0.5610
 78   2    0.5817
 79   2    0.5856
 80   2    0.5720
 81   2    0.5409
 82   2    0.4936
 83   2    0.4333
 84   2    0.3654
 85   2    0.2970
 86   2    0.2354
 87   2    0.1850
 88   2    0.1471
 89   2    0.1210
 90   2    0.1048
 91   2    0.0958
 92   2    0.0921
 93   2    0.0926
 94   2    0.0981
 95   2    0.1118
 96   2    0.1393
 97   2    0.1886
 98   2    0.2687
 99   2    0.3856
100   2    0.5319
101   2    0.6870
102   2    0.8199
103   2    0.9098
104   2    0.9534
105   2    0.9703
106   2    0.9762
107   2    0.9776
108   2    0.9754
109   2    0.9679
110   2    0.9464
111   2    0.8920
112   2    0.7898
113   2    0.6502
114   2    0.5002
115   2    0.3692
116   2    0.2747
117   2    0.2220
118   2    0.2081
119   2    0.2322
120   2    0.2977
121   2    0.4079
122   2    0.5544
123   2    0.7144
124   2    0.8504
125   2    0.9345
126   2    0.9677
127   2    0.9775
128   2    0.9793
  1   3    0.9760
  2   3    0.9590
  3   3    0.9056
  4   3    0.7908
  5   3    0.6311
  6   3    0.4645
  7   3    0.3253
  8   3    0.2303
  9   3    0.1786
 10   3    0.1629
 11   3    0.1801
 12   3    0.2335
 13   3    0.3302
 14   3    0.4711
 15   3    0.6388
 16   3    0.7984
 17   3    0.9115
 18   3    0.9625
 19   3    0.9784
 20   3    0.9829
 21   3    0.9841
 22   3    0.9844
 23   3    0.9839
 24   3    0.9825
 25   3    0.9769
 26   3    0.9573
 27   3    0.8968
 28   3    0.7718
 29   3    0.6037
 30   3    0.4332
 31   3    0.2930
 32   3    0.1968
 33   3    0.1385
 34   3    0.1068
 35   3    0.0912
 36   3    0.0841
 37   3    0.0809
 38   3    0.0796
 39   3    0.0791
 40   3    0.0792
 41   3    0.0798
 42   3    0.0812
 43   3    0.0843
 44   3    0.0905
 45   3    0.1028
 46   3    0.1257
 47   3    0.1645
 48   3    0.2243
 49   3    0.3080
 50   3    0.4131
 51   3    0.5281
 52   3    0.6387
 53   3    0.7310
 54   3    0.7965
 55   3    0.8355
 56   3    0.8503
 57   3    0.8427
 58   3    0.8114
 59   3    0.7537
 60   3    0.6681
 61   3    0.5605
 62   3    0.4452
 63   3    0.3369
 64   3    0.2490
 65   3    0.1865
 66   3    0.1474
 67   3    0.1273
 68   3    0.1219
 69   3    0.1283
 70   3    0.1449
 71   3    0.1707
 72   3    0.2046
 73   3    0.2444
 74   3    0.2874
 75   3    0.3296
 76   3    0.3669
 77   3    0.3956
 78   3    0.4127
 79   3    0.4166
 80   3    0.4064
 81   3    0.3827
 82   3    0.3475
 83   3    0.3044
 84   3    0.2583
 85   3    0.2140
 86   3    0.1751
 87   3    0.1439
 88   3    0.1209
 89   3    0.1054
 90   3    0.0960
 91   3    0.0908
 92   3    0.0889
 93   3    0.0898
 94   3    0.0945
 95   3    0.1054
 96   3    0.1271
 97   3    0.1663
 98   3    0.2305
 99   3    0.3259
100   3    0.4513
101   3    0.5923
102   3    0.7274
103   3    0.8338
104   3    0.9032
105   3    0.9388
106   3    0.9536
107   3    0.9571
108   3    0.9520
109   3    0.9344
110   3    0.8932
111   3    0.8161
112   3    0.7035
113   3    0.5679
114   3    0.4344
115   3    0.3234
116   3    0.2472
117   3    0.2077
118   3    0.2029
119   3    0.2338
120   3    0.3056
121   3    0.4219
122   3    0.5733
123   3    0.7347
124   3    0.8672
125   3    0.9437
126   3    0.9716
127   3    0.9794
128   3    0.9802
  1   4    0.9723
  2   4    0.9497
  3   4    0.8857
  4   4    0.7641
  5   4    0.6045
  6   4    0.4439
  7   4    0.3119
  8   4    0.2228
  9   4    0.1741
 10   4    0.1590
 11   4    0.1745
 12   4    0.2235
 13   4    0.3129
 14   4    0.4451
 15   4    0.6061
 16   4    0.7659
 17   4    0.8877
 18   4    0.9515
 19   4    0.9739
 20   4    0.9809
 21   4    0.9829
 22   4    0.9835
 23   4    0.9828
 24   4    0.9804
 25   4    0.9720
 26   4    0.9448
 27   4    0.8702
 28   4    0.7371
 29   4    0.5693
 30   4    0.4061
 31   4    0.2750
 32   4    0.1863
 33   4    0.1329
 34   4    0.1040
 35   4    0.0897
 36   4    0.0831
 37   4    0.0802
 38   4    0.0789
 39   4    0.0785
 40   4    0.0786
 41   4    0.0794
 42   4    0.0814
 43   4    0.0856
 44   4    0.0944
 45   4    0.1119
 46   4    0.1444
 47   4    0.1985
 48   4    0.2802
 49   4    0.3913
 50   4    0.5219
 51   4    0.6551
 52   4    0.7702
 53   4    0.8542
 54   4    0.9056
 55   4    0.9308
 56   4    0.9392
 57   4    0.9349
 58   4    0.9154
 59   4    0.8718
 60   4    0.7954
 61   4    0.6859
 62   4    0.5537
 63   4    0.4204
 64   4    0.3048
 65   4    0.2188
 66   4    0.1624
 67   4    0.1299
 68   4    0.1148
 69   4    0.1118
 70   4    0.1174
 71   4    0.1300
 72   4    0.1484
 73   4    0.1713
 74   4    0.1970
 75   4    0.2231
 76   4    0.2472
 77   4    0.2665
 78   4    0.2787
 79   4    0.2822
 80   4    0.2763
 81   4    0.2616
 82   4    0.2397
 83   4    0.2132
 84   4    0.1853
 85   4    0.1588
 86   4    0.1358
 87   4    0.1177
 88   4    0.1045
 89   4    0.0957
 90   4    0.0904
 91   4    0.0875
 92   4    0.0866
 93   4    0.0876
 94   4    0.0912
 95   4    0.0993
 96   4    0.1154
 97   4    0.1445
 98   4    0.1928
 99   4    0.2654
100   4    0.3647
101   4    0.4834
102   4    0.6067
103   4    0.7175
104   4    0.8017
105   4    0.8567
106   4    0.8857
107   4    0.8937
108   4    0.8829
109   4    0.8501
110   4    0.7906
111   4    0.7020
112   4    0.5895
113   4    0.4692
114   4    0.3585
115   4    0.2716
116   4    0.2150
117   4    0.1883
118   4    0.1911
119   4    0.2258
120   4    0.2987
121   4    0.4143
122   4    0.5640
123   4    0.7243
124   4    0.8578
125   4    0.9381
126   4    0.9689
127   4    0.9778
128   4    0.9785
  1   5    0.9580
  2   5    0.9228
  3   5    0.8411
  4   5    0.7120
  5   5    0.5561
  6   5    0.4068
  7   5    0.2875
  8   5    0.2082
  9   5    0.1648
 10   5    0.1509
 11   5    0.1638
 12   5    0.2060
 13   5    0.2839
 14   5    0.4017
 15   5    0.5502
 16   5    0.7069
 17   5    0.8383
 18   5    0.9232
 19   5    0.9608
 20   5    0.9745
 21   5    0.9792
 22   5    0.9802
 23   5    0.9790
 24   5    0.9740
 25   5    0.9588
 26   5    0.9156
 27   5    0.8214
 28   5    0.6803
 29   5    0.5175
 30   5    0.3670
 31   5    0.2503
 32   5    0.1726
 33   5    0.1260
 34   5    0.1009
 35   5    0.0885
 36   5    0.0826
 37   5    0.0800
 38   5    0.0788
 39   5    0.0784
 40   5    0.0786
 41   5    0.0796
 42   5    0.0821
 43   5    0.0877
 44   5    0.0996
 45   5    0.1233
 46   5    0.1666
 47   5    0.2375
 48   5    0.3424
 49   5    0.4780
 50   5    0.6272
 51   5    0.7650
 52   5    0.8685
 53   5    0.9299
 54   5    0.9576
 55   5    0.9686
 56   5    0.9719
 57   5    0.9702
 58   5    0.9619
 59   5    0.9395
 60   5    0.8861
 61   5    0.7889
 62   5    0.6540
 63   5    0.5030
 64   5    0.3636
 65   5    0.2544
 66   5    0.1807
 67   5    0.1363
 68   5    0.1129
 69   5    0.1032
 70   5    0.1020
 71   5    0.1065
 72   5    0.1151
 73   5    0.1270
 74   5    0.1411
 75   5    0.1562
 76   5    0.1706
 77   5    0.1828
 78   5    0.1911
 79   5    0.1944
 80   5    0.1922
 81   5    0.1846
 82   5    0.1726
 83   5    0.1577
 84   5    0.1418
 85   5    0.1266
 86   5    0.1135
 87   5    0.1032
 88   5    0.0956
 89   5    0.0905
 90   5    0.0873
 91   5    0.0856
 92   5    0.0851
 93   5    0.0859
 94   5    0.0885
 95   5    0.0941
 96   5    0.1052
 97   5    0.1255
 98   5    0.1593
 99   5    0.2111
100   5    0.2832
101   5    0.3741
102   5    0.4750
103   5    0.5732
104   5    0.6575
105   5    0.7190
106   5    0.7549
107   5    0.7655
108   5    0.7514
109   5    0.7121
110   5    0.6475
111   5    0.5616
112   5    0.4642
113   5    0.3674
114   5    0.2837
115   5    0.2215
116   5    0.1827
117   5    0.1669
118   5    0.1748
119   5    0.2097
120   5    0.2783
121   5    0.3861
122   5    0.5272
123   5    0.6822
124   5    0.8186
125   5    0.9112
126   5    0.9542
127   5    0.9684
128   5    0.9693
  1   6    0.9166
  2   6    0.8615
  3   6    0.7651
  4   6    0.6334
  5   6    0.4888
  6   6    0.3570
  7   6    0.2554
  8   6    0.1887
  9   6    0.1521
 10   6    0.1400
 11   6    0.1500
 12   6    0.1842
 13   6    0.2479
 14   6    0.3464
 15   6    0.4765
 16   6    0.6220
 17   6    0.7584
 18   6    0.8621
 19   6    0.9250
 20   6    0.9541
 21   6    0.9654
 22   6    0.9687
 23   6    0.9659
 24   6    0.9545
 25   6    0.9241
 26   6    0.8572
 27   6    0.7467
 28   6    0.6032
 29   6    0.4531
 30   6    0.3211
 31   6    0.2227
 32   6    0.1580
 33   6    0.1194
 34   6    0.0986
 35   6    0.0881
 36   6    0.0830
 37   6    0.0805
 38   6    0.0793
 39   6    0.0789
 40   6    0.0791
 41   6    0.0803
 42   6    0.0834
 43   6    0.0905
 44   6    0.1057
 45   6    0.1361
 46   6    0.1906
 47   6    0.2785
 48   6    0.4048
 49   6    0.5590
 50   6    0.7172
 51   6    0.8464
 52   6    0.9275
 53   6    0.9627
 54   6    0.9754
 55   6    0.9800
 56   6    0.9812
 57   6    0.9806
 58   6    0.9772
 59   6    0.9668
 60   6    0.9364
 61   6    0.8612
 62   6    0.7344
 63   6    0.5752
 64   6    0.4182
 65   6    0.2891
 66   6    0.1995
 67   6    0.1443
 68   6    0.1140
 69   6    0.0995
 70   6    0.0943
 71   6    0.0943
 72   6    0.0976
 73   6    0.1033
 74   6    0.1107
 75   6    0.1192
 76   6    0.1280
 77   6    0.1361
 78   6    0.1425
 79   6    0.1464
 80   6    0.1471
 81   6    0.1444
 82   6    0.1387
 83   6    0.1308
 84   6    0.1217
 85   6    0.1127
 86   6    0.1045
 87   6    0.0977
 88   6    0.0925
 89   6    0.0888
 90   6    0.0863
 91   6    0.0849
 92   6    0.0844
 93   6    0.0847
 94   6    0.0864
 95   6    0.0901
 96   6    0.0973
 97   6    0.1104
 98   6    0.1325
 99   6    0.1669
100   6    0.2155
101   6    0.2782
102   6    0.3516
103   6    0.4279
104   6    0.4972
105   6    0.5516
106   6    0.5855
107   6    0.5960
108   6    0.5825
109   6    0.5460
110   6    0.4899
111   6    0.4204
112   6    0.3460
113   6    0.2764
114   6    0.2193
115   6    0.1783
116   6    0.1539
117   6    0.1462
118   6    0.1565
119   6    0.1886
120   6    0.2484
121   6    0.3421
122   6    0.4677
123   6    0.6102
124   6    0.7457
125   6    0.8490
126   6    0.9107
127   6    0.9362
128   6    0.9376
  1   7    0.8245
  2   7    0.7581
  3   7    0.6574
  4   7    0.5344
  5   7    0.4096
  6   7    0.3009
  7   7    0.2200
  8   7    0.1672
  9   7    0.1381
 10   7    0.1281
 11   7    0.1353
 12   7    0.1611
 13   7    0.2101
 14   7    0.2870
 15   7    0.3931
 16   7    0.5191
 17   7    0.6483
 18   7    0.7610
 19   7    0.8439
 20   7    0.8956
 21   7    0.9214
 22   7    0.9296
 23   7    0.9235
 24   7    0.8994
 25   7    0.8482
 26   7    0.7635
 27   7    0.6469
 28   7    0.5129
 29   7    0.3832
 30   7    0.2749
 31   7    0.1967
 32   7    0.1456
 33   7    0.1151
 34   7    0.0984
 35   7    0.0897
 36   7    0.0852
 37   7    0.0828
 38   7    0.0814
 39   7    0.0807
 40   7    0.0807
 41   7    0.0819
 42   7    0.0855
 43   7    0.0941
 44   7    0.1126
 45   7    0.1494
 46   7    0.2144
 47   7    0.3176
 48   7    0.4609
 49   7    0.6274
 50   7    0.7847
 51   7    0.8989
 52   7    0.9553
 53   7    0.9749
 54   7    0.9812
 55   7    0.9831
 56   7    0.9837
 57   7    0.9835
 58   7    0.9818
 59   7    0.9765
 60   7    0.9585
 61   7    0.9042
 62   7    0.7897
 63   7    0.6302
 64   7    0.4619
 65   7    0.3182
 66   7    0.2157
 67   7    0.1519
 68   7    0.1162
 69   7    0.0985
 70   7    0.0909
 71   7    0.0887
 72   7    0.0895
 73   7    0.0924
 74   7    0.0968
 75   7    0.1024
 76   7    0.1090
 77   7    0.1161
 78   7    0.1228
 79   7    0.1284
 80   7    0.1320
 81   7    0.1330
 82   7    0.1313
 83   7    0.1270
 84   7    0.1209
 85   7    0.1138
 86   7    0.1066
 87   7    0.1001
 88   7    0.0947
 89   7    0.0904
 90   7    0.0874
 91   7    0.0855
 92   7    0.0844
 93   7    0.0842
 94   7    0.0850
 95   7    0.0872
 96   7    0.0915
 97   7    0.0995
 98   7    0.1130
 99   7    0.1341
100   7    0.1646
101   7    0.2045
102   7    0.2521
103   7    0.3035
104   7    0.3528
105   7    0.3932
106   7    0.4192
107   7    0.4274
108   7    0.4170
109   7    0.3894
110   7    0.3482
111   7    0.2994
112   7    0.2498
113   7    0.2052
114   7    0.1695
115   7    0.1444
116   7    0.1306
117   7    0.1281
118   7    0.1387
119   7    0.1657
120   7    0.2143
121   7    0.2899
122   7    0.3938
123   7    0.5163
124   7    0.6404
125   7    0.7454
126   7    0.8171
127   7    0.8532
128   7    0.8556
  1   8    0.6874
  2   8    0.6215
  3   8    0.5305
  4   8    0.4279
  5   8    0.3286
  6   8    0.2461
  7   8    0.1858
  8   8    0.1465
  9   8    0.1247
 10   8    0.1169
 11   8    0.1216
 12   8    0.1398
 13   8    0.1750
 14   8    0.2311
 15   8    0.3106
 16   8    0.4108
 17   8    0.5206
 18   8    0.6266
 19   8    0.7157
 20   8    0.7795
 21   8    0.8174
 22   8    0.8314
 23   8    0.8225
 24   8    0.7891
 25   8    0.7284
 26   8    0.6402
 27   8    0.5326
 28   8    0.4200
 29   8    0.3169
 30   8    0.2350
 31   8    0.1768
 32   8    0.1389
 33   8    0.1160
 34   8    0.1031
 35   8    0.0959
 36   8    0.0916
 37   8    0.0888
 38   8    0.0868
 39   8    0.0853
 40   8    0.0847
 41   8    0.0855
 42   8    0.0892
 43   8    0.0989
 44   8    0.1203
 45   8    0.1623
 46   8    0.2358
 47   8    0.3509
 48   8    0.5057
 49   8    0.6782
 50   8    0.8297
 51   8    0.9275
 52   8    0.9672
 53   8    0.9793
 54   8    0.9829
 55   8    0.9840
 56   8    0.9842
 57   8    0.9842
 58   8    0.9833
 59   8    0.9799
 60   8    0.9672
 61   8    0.9248
 62   8    0.8210
 63   8    0.6640
 64   8    0.4898
 65   8    0.3374
 66   8    0.2267
 67   8    0.1573
 68   8    0.1182
 69   8    0.0986
 70   8    0.0898
 71   8    0.0867
 72   8    0.0868
 73   8    0.0890
 74   8    0.0929
 75   8    0.0988
 76   8    0.1063
 77   8    0.1154
 78   8    0.1252
 79   8    0.1347
 80   8    0.1425
 81   8    0.1474
 82   8    0.1487
 83   8    0.1460
 84   8    0.1399
 85   8    0.1314
 86   8    0.1217
 87   8    0.1121
 88   8    0.1035
 89   8    0.0966
 90   8    0.0913
 91   8    0.0877
 92   8    0.0855
 93   8    0.0844
 94   8    0.0843
 95   8    0.0852
 96   8    0.0877
 97   8    0.0922
 98   8    0.0999
 99   8    0.1121
100   8    0.1298
101   8    0.1533
102   8    0.1818
103   8    0.2129
104   8    0.2433
105   8    0.2688
106   8    0.2855
107   8    0.2910
108   8    0.2842
109   8    0.2664
110   8    0.2407
111   8    0.2109
112   8    0.1812
113   8    0.1549
114   8    0.1343
115   8    0.1203
116   8    0.1133
117   8    0.1137
118   8    0.1229
119   8    0.1439
120   8    0.1809
121   8    0.2377
122   8    0.3167
123   8    0.4138
124   8    0.5165
125   8    0.6098
126   8    0.6799
127   8    0.7177
128   8    0.7202
  1   9    0.5306
  2   9    0.4767
  3   9    0.4053
  4   9    0.3278
  5   9    0.2563
  6   9    0.1984
  7   9    0.1561
  8   9    0.1285
  9   9    0.1131
 10   9    0.1074
 11   9    0.1101
 12   9    0.1220
 13   9    0.1456
 14   9    0.1838
 15   9    0.2388
 16   9    0.3105
 17   9    0.3945
 18   9    0.4810
 19   9    0.5596
 20   9    0.6221
 21   9    0.6630
 22   9    0.6796
 23   9    0.6714
 24   9    0.6381
 25   9    0.5813
 26   9    0.5061
 27   9    0.4210
 28   9    0.3365
 29   9    0.2634
 30   9    0.2072
 31   9    0.1678
 32   9    0.1422
 33   9    0.1265
 34   9    0.1171
 35   9    0.1112
 36   9    0.1068
 37   9    0.1029
 38   9    0.0993
 39   9    0.0960
 40   9    0.0937
 41   9    0.0931
 42   9    0.0961
 43   9    0.1060
 44   9    0.1290
 45   9    0.1742
 46   9    0.2531
 47   9    0.3753
 48   9    0.5358
 49   9    0.7097
 50   9    0.8549
 51   9    0.9407
 52   9    0.9719
 53   9    0.9809
 54   9    0.9834
 55   9    0.9842
 56   9    0.9844
 57   9    0.9843
 58   9    0.9835
 59   9    0.9807
 60   9    0.9695
 61   9    0.9307
 62   9    0.8308
 63   9    0.6750
 64   9    0.4992
 65   9    0.3439
 66   9    0.2305
 67   9    0.1593
 68   9    0.1191
 69   9    0.0989
 70   9    0.0899
 71   9    0.0869
 72   9    0.0874
 73   9    0.0905
 74   9    0.0963
 75   9    0.1051
 76   9    0.1172
 77   9    0.1322
 78   9    0.1491
 79   9    0.1660
 80   9    0.1808
 81   9    0.1912
 82   9    0.1957
 83   9    0.1934
 84   9    0.1849
 85   9    0.1715
 86   9    0.1553
 87   9    0.1384
 88   9    0.1228
 89   9    0.1098
 90   9    0.0998
 91   9    0.0928
 92   9    0.0882
 93   9    0.0856
 94   9    0.0843
 95   9    0.0843
 96   9    0.0853
 97   9    0.0877
 98   9    0.0919
 99   9    0.0986
100   9    0.1082
101   9    0.1211
102   9    0.1369
103   9    0.1544
104   9    0.1716
105   9    0.1861
106   9    0.1957
107   9    0.1987
108   9    0.1948
109   9    0.1846
110   9    0.1700
111   9    0.1533
112   9    0.1368
113   9    0.1225
114   9    0.1116
115   9    0.1045
116   9    0.1015
117   9    0.1031
118   9    0.1103
119   9    0.1255
120   9    0.1517
121   9    0.1918
122   9    0.2474
123   9    0.3170
124   9    0.3941
125   9    0.4670
126   9    0.5241
127   9    0.5563
128   9    0.5586
  1  10    0.3872
  2  10    0.3485
  3  10    0.2986
  4  10    0.2465
  5  10    0.1991
  6  10    0.1608
  7  10    0.1328
  8  10    0.1145
  9  10    0.1042
 10  10    0.1001
 11  10    0.1014
 12  10    0.1085
 13  10    0.1231
 14  10    0.1473
 15  10    0.1827
 16  10    0.2296
 17  10    0.2864
 18  10    0.3483
 19  10    0.4081
 20  10    0.4582
 21  10    0.4929
 22  10    0.5085
 23  10    0.5037
 24  10    0.4789
 25  10    0.4373
 26  10    0.3841
 27  10    0.3269
 28  10    0.2733
 29  10    0.2292
 30  10    0.1967
 31  10    0.1749
 32  10    0.1614
 33  10    0.1534
 34  10    0.1483
 35  10    0.1438
 36  10    0.1388
 37  10    0.1328
 38  10    0.1259
 39  10    0.1189
 40  10    0.1126
 41  10    0.1087
 42  10    0.1091
 43  10    0.1174
 44  10    0.1398
 45  10    0.1853
 46  10    0.2652
 47  10    0.3887
 48  10    0.5493
 49  10    0.7214
 50  10    0.8629
 51  10    0.9440
 52  10    0.9728
 53  10    0.9811
 54  10    0.9834
 55  10    0.9841
 56  10    0.9843
 57  10    0.9841
 58  10    0.9832
 59  10    0.9798
 60  10    0.9671
 61  10    0.9245
 62  10    0.8204
 63  10    0.6632
 64  10    0.4891
 65  10    0.3368
 66  10    0.2263
 67  10    0.1571
 68  10    0.1183
 69  10    0.0989
 70  10    0.0907
 71  10    0.0886
 72  10    0.0906
 73  10    0.0964
 74  10    0.1066
 75  10    0.1221
 76  10    0.1432
 77  10    0.1693
 78  10    0.1986
 79  10    0.2281
 80  10    0.2540
 81  10    0.2727
 82  10    0.2814
 83  10    0.2787
 84  10    0.2652
 85  10    0.2430
 86  10    0.2153
 87  10    0.1859
 88  10    0.1580
 89  10    0.1342
 90  10    0.1155
 91  10    0.1022
 92  10    0.0935
 93  10    0.0883
 94  10    0.0854
 95  10    0.0842
 96  10    0.0842
 97  10    0.0853
 98  10    0.0875
 99  10    0.0911
100  10    0.0963
101  10    0.1031
102  10    0.1115
103  10    0.1208
104  10    0.1300
105  10    0.1376
106  10    0.1426
107  10    0.1441
108  10    0.1417
109  10    0.1361
110  10    0.1282
111  10    0.1194
112  10    0.1108
113  10    0.1036
114  10    0.0982
115  10    0.0949
116  10    0.0939
117  10    0.0956
118  10    0.1009
119  10    0.1112
120  10    0.1287
121  10    0.1553
122  10    0.1921
123  10    0.2383
124  10    0.2901
125  10    0.3409
126  10    0.3820
127  10    0.4057
128  10    0.4076
  1  11    0.2767
  2  11    0.2521
  3  11    0.2208
  4  11    0.1880
  5  11    0.1582
  6  11    0.1340
  7  11    0.1162
  8  11    0.1046
  9  11    0.0978
 10  11    0.0948
 11  11    0.0952
 12  11    0.0992
 13  11    0.1075
 14  11    0.1216
 15  11    0.1427
 16  11    0.1711
 17  11    0.2061
 18  11    0.2450
 19  11    0.2841
 20  11    0.3187
 21  11    0.3440
 22  11    0.3569
 23  11    0.3562
 24  11    0.3426
 25  11    0.3191
 26  11    0.2902
 27  11    0.2611
 28  11    0.2363
 29  11    0.2186
 30  11    0.2084
 31  11    0.2046
 32  11    0.2048
 33  11    0.2064
 34  11    0.2070
 35  11    0.2047
 36  11    0.1989
 37  11    0.1893
 38  11    0.1769
 39  11    0.1630
 40  11    0.1494
 41  11    0.1385
 42  11    0.1329
 43  11    0.1364
 44  11    0.1548
 45  11    0.1965
 46  11    0.2722
 47  11    0.3905
 48  11    0.5453
 49  11    0.7129
 50  11    0.8535
 51  11    0.9382
 52  11    0.9702
 53  11    0.9799
 54  11    0.9827
 55  11    0.9837
 56  11    0.9838
 57  11    0.9834
 58  11    0.9819
 59  11    0.9764
 60  11    0.9585
 61  11    0.9037
 62  11    0.7886
 63  11    0.6288
 64  11    0.4604
 65  11    0.3168
 66  11    0.2147
 67  11    0.1512
 68  11    0.1159
 69  11    0.0987
 70  11    0.0920
 71  11    0.0918
 72  11    0.0968
 73  11    0.1076
 74  11    0.1256
 75  11    0.1524
 76  11    0.1882
 77  11    0.2318
 78  11    0.2800
 79  11    0.3279
 80  11    0.3693
 81  11    0.3988
 82  11    0.4126
 83  11    0.4090
 84  11    0.3887
 85  11    0.3542
 86  11    0.3100
 87  11    0.2618
 88  11    0.2153
 89  11    0.1747
 90  11    0.1422
 91  11    0.1186
 92  11    0.1028
 93  11    0.0932
 94  11    0.0878
 95  11    0.0851
 96  11    0.0842
 97  11    0.0844
 98  11    0.0856
 99  11    0.0878
100  11    0.0909
101  11    0.0949
102  11    0.0997
103  11    0.1048
104  11    0.1097
105  11    0.1136
106  11    0.1159
107  11    0.1163
108  11    0.1146
109  11    0.1112
110  11    0.1067
111  11    0.1018
112  11    0.0973
113  11    0.0935
114  11    0.0908
115  11    0.0893
116  11    0.0892
117  11    0.0906
118  11    0.0943
119  11    0.1010
120  11    0.1122
121  11    0.1290
122  11    0.1523
123  11    0.1815
124  11    0.2142
125  11    0.2464
126  11    0.2728
127  11    0.2883
128  11    0.2897
  1  12    0.2050
  2  12    0.1901
  3  12    0.1708
  4  12    0.1505
  5  12    0.1320
  6  12    0.1168
  7  12    0.1057
  8  12    0.0981
  9  12    0.0936
 10  12    0.0914
 11  12    0.0912
 12  12    0.0931
 13  12    0.0975
 14  12    0.1051
 15  12    0.1166
 16  12    0.1325
 17  12    0.1523
 18  12    0.1748
 19  12    0.1979
 20  12    0.2189
 21  12    0.2353
 22  12    0.2452
 23  12    0.2481
 24  12    0.2449
 25  12    0.2380
 26  12    0.2307
 27  12    0.2262
 28  12    0.2271
 29  12    0.2346
 30  12    0.2480
 31  12    0.2648
 32  12    0.2820
 33  12    0.2963
 34  12    0.3047
 35  12    0.3057
 36  12    0.2986
 37  12    0.2839
 38  12    0.2632
 39  12    0.2387
 40  12    0.2133
 41  12    0.1904
 42  12    0.1736
 43  12    0.1672
 44  12    0.1766
 45  12    0.2095
 46  12    0.2752
 47  12    0.3814
 48  12    0.5239
 49  12    0.6830
 50  12    0.8240
 51  12    0.9189
 52  12    0.9612
 53  12    0.9757
 54  12    0.9805
 55  12    0.9819
 56  12    0.9822
 57  12    0.9812
 58  12    0.9778
 59  12    0.9672
 60  12    0.9367
 61  12    0.8609
 62  12    0.7330
 63  12    0.5730
 64  12    0.4157
 65  12    0.2866
 66  12    0.1973
 67  12    0.1423
 68  12    0.1123
 69  12    0.0983
 70  12    0.0941
 71  12    0.0969
 72  12    0.1067
 73  12    0.1253
 74  12    0.1555
 75  12    0.1989
 76  12    0.2558
 77  12    0.3238
 78  12    0.3965
 79  12    0.4651
 80  12    0.5217
 81  12    0.5607
 82  12    0.5787
 83  12    0.5744
 84  12    0.5483
 85  12    0.5025
 86  12    0.4413
 87  12    0.3709
 88  12    0.2997
 89  12    0.2356
 90  12    0.1834
 91  12    0.1445
 92  12    0.1179
 93  12    0.1015
 94  12    0.0921
 95  12    0.0873
 96  12    0.0853
 97  12    0.0851
 98  12    0.0860
 99  12    0.0879
100  12    0.0905
101  12    0.0938
102  12    0.0975
103  12    0.1012
104  12    0.1044
105  12    0.1067
106  12    0.1076
107  12    0.1069
108  12    0.1049
109  12    0.1019
110  12    0.0983
111  12    0.0948
112  12    0.0916
113  12    0.0890
114  12    0.0873
115  12    0.0864
116  12    0.0864
117  12    0.0875
118  12    0.0900
119  12    0.0944
120  12    0.1015
121  12    0.1121
122  12    0.1266
123  12    0.1448
124  12    0.1652
125  12    0.1853
126  12    0.2018
127  12    0.2116
128  12    0.2128
  1  13    0.1663
  2  13    0.1566
  3  13    0.1439
  4  13    0.1304
  5  13    0.1180
  6  13    0.1077
  7  13    0.1000
  8  13    0.0946
  9  13    0.0912
 10  13    0.0893
 11  13    0.0887
 12  13    0.0894
 13  13    0.0915
 14  13    0.0953
 15  13    0.1011
 16  13    0.1092
 17  13    0.1195
 18  13    0.1315
 19  13    0.1441
 20  13    0.1562
 21  13    0.1665
 22  13    0.1744
 23  13    0.1803
 24  13    0.1853
 25  13    0.1917
 26  13    0.2024
 27  13    0.2198
 28  13    0.2458
 29  13    0.2802
 30  13    0.3204
 31  13    0.3619
 32  13    0.3995
 33  13    0.4287
 34  13    0.4465
 35  13    0.4515
 36  13    0.4435
 37  13    0.4233
 38  13    0.3927
 39  13    0.3545
 40  13    0.3126
 41  13    0.2718
 42  13    0.2374
 43  13    0.2145
 44  13    0.2088
 45  13    0.2268
 46  13    0.2762
 47  13    0.3635
 48  13    0.4867
 49  13    0.6309
 50  13    0.7696
 51  13    0.8757
 52  13    0.9368
 53  13    0.9629
 54  13    0.9726
 55  13    0.9761
 56  13    0.9763
 57  13    0.9733
 58  13    0.9648
 59  13    0.9421
 60  13    0.8883
 61  13    0.7894
 62  13    0.6526
 63  13    0.5001
 64  13    0.3598
 65  13    0.2504
 66  13    0.1766
 67  13    0.1319
 68  13    0.1081
 69  13    0.0980
 70  13    0.0971
 71  13    0.1041
 72  13    0.1209
 73  13    0.1507
 74  13    0.1974
 75  13    0.2631
 76  13    0.3472
 77  13    0.4427
 78  13    0.5381
 79  13    0.6231
 80  13    0.6888
 81  13    0.7313
 82  13    0.7500
 83  13    0.7457
 84  13    0.7183
 85  13    0.6675
 86  13    0.5950
 87  13    0.5065
 88  13    0.4110
 89  13    0.3192
 90  13    0.2413
 91  13    0.1819
 92  13    0.1404
 93  13    0.1142
 94  13    0.0991
 95  13    0.0914
 96  13    0.0882
 97  13    0.0877
 98  13    0.0891
 99  13    0.0918
100  13    0.0956
101  13    0.1001
102  13    0.1049
103  13    0.1092
104  13    0.1126
105  13    0.1144
106  13    0.1144
107  13    0.1124
108  13    0.1089
109  13    0.1045
110  13    0.0997
111  13    0.0952
112  13    0.0914
113  13    0.0884
114  13    0.0864
115  13    0.0853
116  13    0.0850
117  13    0.0857
118  13    0.0874
119  13    0.0906
120  13    0.0955
121  13    0.1027
122  13    0.1125
123  13    0.1248
124  13    0.1386
125  13    0.1521
126  13    0.1633