variables =  "IG"  "JG"  "PHI"
 ZONE I=         128 J=          128
  1   1    0.4044
  2   1    0.4045
  3   1    0.4044
  4   1    0.4040
  5   1    0.4034
  6   1    0.4025
  7   1    0.4015
  8   1    0.4005
  9   1    0.3994
 10   1    0.3984
 11   1    0.3976
 12   1    0.3970
 13   1    0.3967
 14   1    0.3968
 15   1    0.3973
 16   1    0.3980
 17   1    0.3991
 18   1    0.4003
 19   1    0.4017
 20   1    0.4030
 21   1    0.4042
 22   1    0.4052
 23   1    0.4058
 24   1    0.4060
 25   1    0.4058
 26   1    0.4052
 27   1    0.4042
 28   1    0.4029
 29   1    0.4015
 30   1    0.3999
 31   1    0.3985
 32   1    0.3972
 33   1    0.3962
 34   1    0.3954
 35   1    0.3950
 36   1    0.3950
 37   1    0.3952
 38   1    0.3957
 39   1    0.3964
 40   1    0.3972
 41   1    0.3979
 42   1    0.3987
 43   1    0.3993
 44   1    0.3997
 45   1    0.4000
 46   1    0.4002
 47   1    0.4002
 48   1    0.4002
 49   1    0.4002
 50   1    0.4002
 51   1    0.4002
 52   1    0.4003
 53   1    0.4004
 54   1    0.4007
 55   1    0.4009
 56   1    0.4011
 57   1    0.4013
 58   1    0.4014
 59   1    0.4013
 60   1    0.4012
 61   1    0.4009
 62   1    0.4004
 63   1    0.3998
 64   1    0.3992
 65   1    0.3985
 66   1    0.3979
 67   1    0.3973
 68   1    0.3968
 69   1    0.3964
 70   1    0.3961
 71   1    0.3960
 72   1    0.3960
 73   1    0.3962
 74   1    0.3966
 75   1    0.3970
 76   1    0.3976
 77   1    0.3982
 78   1    0.3989
 79   1    0.3996
 80   1    0.4003
 81   1    0.4010
 82   1    0.4016
 83   1    0.4022
 84   1    0.4026
 85   1    0.4028
 86   1    0.4030
 87   1    0.4029
 88   1    0.4027
 89   1    0.4024
 90   1    0.4019
 91   1    0.4013
 92   1    0.4007
 93   1    0.4001
 94   1    0.3996
 95   1    0.3992
 96   1    0.3989
 97   1    0.3988
 98   1    0.3989
 99   1    0.3992
100   1    0.3997
101   1    0.4002
102   1    0.4009
103   1    0.4016
104   1    0.4022
105   1    0.4027
106   1    0.4030
107   1    0.4032
108   1    0.4031
109   1    0.4029
110   1    0.4024
111   1    0.4018
112   1    0.4011
113   1    0.4004
114   1    0.3997
115   1    0.3990
116   1    0.3985
117   1    0.3981
118   1    0.3980
119   1    0.3980
120   1    0.3983
121   1    0.3988
122   1    0.3994
123   1    0.4002
124   1    0.4010
125   1    0.4019
126   1    0.4027
127   1    0.4034
128   1    0.4040
  1   2    0.4046
  2   2    0.4047
  3   2    0.4045
  4   2    0.4041
  5   2    0.4034
  6   2    0.4026
  7   2    0.4017
  8   2    0.4007
  9   2    0.3997
 10   2    0.3989
 11   2    0.3983
 12   2    0.3979
 13   2    0.3977
 14   2    0.3980
 15   2    0.3985
 16   2    0.3993
 17   2    0.4003
 18   2    0.4015
 19   2    0.4027
 20   2    0.4038
 21   2    0.4047
 22   2    0.4053
 23   2    0.4056
 24   2    0.4055
 25   2    0.4050
 26   2    0.4041
 27   2    0.4029
 28   2    0.4015
 29   2    0.4000
 30   2    0.3984
 31   2    0.3970
 32   2    0.3958
 33   2    0.3949
 34   2    0.3944
 35   2    0.3941
 36   2    0.3943
 37   2    0.3947
 38   2    0.3954
 39   2    0.3962
 40   2    0.3971
 41   2    0.3980
 42   2    0.3988
 43   2    0.3995
 44   2    0.4001
 45   2    0.4004
 46   2    0.4007
 47   2    0.4008
 48   2    0.4009
 49   2    0.4010
 50   2    0.4010
 51   2    0.4011
 52   2    0.4012
 53   2    0.4014
 54   2    0.4016
 55   2    0.4018
 56   2    0.4020
 57   2    0.4021
 58   2    0.4021
 59   2    0.4019
 60   2    0.4016
 61   2    0.4012
 62   2    0.4006
 63   2    0.3999
 64   2    0.3992
 65   2    0.3984
 66   2    0.3976
 67   2    0.3969
 68   2    0.3963
 69   2    0.3958
 70   2    0.3955
 71   2    0.3953
 72   2    0.3953
 73   2    0.3954
 74   2    0.3957
 75   2    0.3961
 76   2    0.3966
 77   2    0.3972
 78   2    0.3979
 79   2    0.3986
 80   2    0.3994
 81   2    0.4001
 82   2    0.4008
 83   2    0.4013
 84   2    0.4018
 85   2    0.4021
 86   2    0.4023
 87   2    0.4023
 88   2    0.4021
 89   2    0.4018
 90   2    0.4014
 91   2    0.4008
 92   2    0.4002
 93   2    0.3996
 94   2    0.3991
 95   2    0.3987
 96   2    0.3985
 97   2    0.3984
 98   2    0.3986
 99   2    0.3989
100   2    0.3994
101   2    0.4000
102   2    0.4007
103   2    0.4014
104   2    0.4021
105   2    0.4026
106   2    0.4030
107   2    0.4031
108   2    0.4031
109   2    0.4028
110   2    0.4023
111   2    0.4017
112   2    0.4010
113   2    0.4003
114   2    0.3995
115   2    0.3989
116   2    0.3984
117   2    0.3981
118   2    0.3980
119   2    0.3982
120   2    0.3985
121   2    0.3991
122   2    0.3998
123   2    0.4006
124   2    0.4014
125   2    0.4023
126   2    0.4031
127   2    0.4038
128   2    0.4043
  1   3    0.4047
  2   3    0.4047
  3   3    0.4045
  4   3    0.4040
  5   3    0.4034
  6   3    0.4026
  7   3    0.4017
  8   3    0.4008
  9   3    0.4000
 10   3    0.3993
 11   3    0.3988
 12   3    0.3986
 13   3    0.3987
 14   3    0.3990
 15   3    0.3996
 16   3    0.4005
 17   3    0.4014
 18   3    0.4025
 19   3    0.4035
 20   3    0.4043
 21   3    0.4050
 22   3    0.4053
 23   3    0.4052
 24   3    0.4048
 25   3    0.4040
 26   3    0.4029
 27   3    0.4015
 28   3    0.3999
 29   3    0.3983
 30   3    0.3968
 31   3    0.3955
 32   3    0.3944
 33   3    0.3937
 34   3    0.3933
 35   3    0.3933
 36   3    0.3936
 37   3    0.3943
 38   3    0.3951
 39   3    0.3961
 40   3    0.3971
 41   3    0.3982
 42   3    0.3991
 43   3    0.3998
 44   3    0.4005
 45   3    0.4009
 46   3    0.4012
 47   3    0.4014
 48   3    0.4016
 49   3    0.4017
 50   3    0.4018
 51   3    0.4019
 52   3    0.4021
 53   3    0.4023
 54   3    0.4025
 55   3    0.4027
 56   3    0.4028
 57   3    0.4029
 58   3    0.4028
 59   3    0.4025
 60   3    0.4021
 61   3    0.4016
 62   3    0.4009
 63   3    0.4001
 64   3    0.3992
 65   3    0.3983
 66   3    0.3975
 67   3    0.3966
 68   3    0.3959
 69   3    0.3953
 70   3    0.3949
 71   3    0.3947
 72   3    0.3946
 73   3    0.3946
 74   3    0.3949
 75   3    0.3952
 76   3    0.3957
 77   3    0.3963
 78   3    0.3970
 79   3    0.3977
 80   3    0.3985
 81   3    0.3992
 82   3    0.3999
 83   3    0.4006
 84   3    0.4011
 85   3    0.4014
 86   3    0.4016
 87   3    0.4017
 88   3    0.4015
 89   3    0.4012
 90   3    0.4008
 91   3    0.4003
 92   3    0.3997
 93   3    0.3992
 94   3    0.3987
 95   3    0.3983
 96   3    0.3981
 97   3    0.3981
 98   3    0.3982
 99   3    0.3986
100   3    0.3992
101   3    0.3998
102   3    0.4006
103   3    0.4013
104   3    0.4019
105   3    0.4025
106   3    0.4028
107   3    0.4030
108   3    0.4029
109   3    0.4026
110   3    0.4021
111   3    0.4015
112   3    0.4008
113   3    0.4001
114   3    0.3994
115   3    0.3988
116   3    0.3984
117   3    0.3981
118   3    0.3981
119   3    0.3983
120   3    0.3988
121   3    0.3994
122   3    0.4001
123   3    0.4010
124   3    0.4019
125   3    0.4027
126   3    0.4035
127   3    0.4041
128   3    0.4045
  1   4    0.4047
  2   4    0.4046
  3   4    0.4043
  4   4    0.4038
  5   4    0.4031
  6   4    0.4023
  7   4    0.4015
  8   4    0.4008
  9   4    0.4001
 10   4    0.3996
 11   4    0.3993
 12   4    0.3992
 13   4    0.3995
 14   4    0.3999
 15   4    0.4006
 16   4    0.4015
 17   4    0.4024
 18   4    0.4033
 19   4    0.4041
 20   4    0.4047
 21   4    0.4051
 22   4    0.4050
 23   4    0.4047
 24   4    0.4039
 25   4    0.4028
 26   4    0.4014
 27   4    0.3998
 28   4    0.3982
 29   4    0.3965
 30   4    0.3951
 31   4    0.3938
 32   4    0.3929
 33   4    0.3924
 34   4    0.3923
 35   4    0.3925
 36   4    0.3931
 37   4    0.3940
 38   4    0.3950
 39   4    0.3962
 40   4    0.3973
 41   4    0.3985
 42   4    0.3994
 43   4    0.4003
 44   4    0.4009
 45   4    0.4014
 46   4    0.4017
 47   4    0.4020
 48   4    0.4021
 49   4    0.4022
 50   4    0.4024
 51   4    0.4025
 52   4    0.4028
 53   4    0.4030
 54   4    0.4032
 55   4    0.4034
 56   4    0.4035
 57   4    0.4036
 58   4    0.4034
 59   4    0.4031
 60   4    0.4027
 61   4    0.4020
 62   4    0.4012
 63   4    0.4003
 64   4    0.3993
 65   4    0.3983
 66   4    0.3973
 67   4    0.3964
 68   4    0.3956
 69   4    0.3949
 70   4    0.3944
 71   4    0.3941
 72   4    0.3940
 73   4    0.3940
 74   4    0.3942
 75   4    0.3945
 76   4    0.3950
 77   4    0.3956
 78   4    0.3963
 79   4    0.3970
 80   4    0.3978
 81   4    0.3985
 82   4    0.3992
 83   4    0.3999
 84   4    0.4004
 85   4    0.4008
 86   4    0.4010
 87   4    0.4011
 88   4    0.4010
 89   4    0.4007
 90   4    0.4003
 91   4    0.3998
 92   4    0.3992
 93   4    0.3987
 94   4    0.3982
 95   4    0.3979
 96   4    0.3977
 97   4    0.3978
 98   4    0.3980
 99   4    0.3984
100   4    0.3990
101   4    0.3997
102   4    0.4005
103   4    0.4012
104   4    0.4019
105   4    0.4024
106   4    0.4027
107   4    0.4028
108   4    0.4027
109   4    0.4024
110   4    0.4019
111   4    0.4012
112   4    0.4005
113   4    0.3998
114   4    0.3992
115   4    0.3986
116   4    0.3983
117   4    0.3981
118   4    0.3982
119   4    0.3985
120   4    0.3990
121   4    0.3997
122   4    0.4005
123   4    0.4014
124   4    0.4022
125   4    0.4030
126   4    0.4037
127   4    0.4043
128   4    0.4046
  1   5    0.4046
  2   5    0.4044
  3   5    0.4040
  4   5    0.4034
  5   5    0.4027
  6   5    0.4019
  7   5    0.4012
  8   5    0.4005
  9   5    0.4000
 10   5    0.3997
 11   5    0.3995
 12   5    0.3997
 13   5    0.4000
 14   5    0.4006
 15   5    0.4014
 16   5    0.4023
 17   5    0.4031
 18   5    0.4039
 19   5    0.4046
 20   5    0.4049
 21   5    0.4050
 22   5    0.4046
 23   5    0.4039
 24   5    0.4028
 25   5    0.4015
 26   5    0.3999
 27   5    0.3981
 28   5    0.3964
 29   5    0.3948
 30   5    0.3934
 31   5    0.3923
 32   5    0.3916
 33   5    0.3913
 34   5    0.3914
 35   5    0.3919
 36   5    0.3927
 37   5    0.3938
 38   5    0.3951
 39   5    0.3964
 40   5    0.3977
 41   5    0.3989
 42   5    0.3999
 43   5    0.4008
 44   5    0.4014
 45   5    0.4019
 46   5    0.4022
 47   5    0.4024
 48   5    0.4025
 49   5    0.4027
 50   5    0.4028
 51   5    0.4030
 52   5    0.4033
 53   5    0.4035
 54   5    0.4038
 55   5    0.4040
 56   5    0.4041
 57   5    0.4041
 58   5    0.4040
 59   5    0.4037
 60   5    0.4031
 61   5    0.4024
 62   5    0.4015
 63   5    0.4005
 64   5    0.3994
 65   5    0.3983
 66   5    0.3972
 67   5    0.3962
 68   5    0.3953
 69   5    0.3946
 70   5    0.3940
 71   5    0.3937
 72   5    0.3935
 73   5    0.3935
 74   5    0.3936
 75   5    0.3940
 76   5    0.3944
 77   5    0.3950
 78   5    0.3957
 79   5    0.3965
 80   5    0.3972
 81   5    0.3980
 82   5    0.3987
 83   5    0.3994
 84   5    0.3999
 85   5    0.4003
 86   5    0.4005
 87   5    0.4006
 88   5    0.4004
 89   5    0.4002
 90   5    0.3998
 91   5    0.3993
 92   5    0.3988
 93   5    0.3983
 94   5    0.3979
 95   5    0.3976
 96   5    0.3975
 97   5    0.3976
 98   5    0.3979
 99   5    0.3983
100   5    0.3990
101   5    0.3997
102   5    0.4004
103   5    0.4012
104   5    0.4018
105   5    0.4023
106   5    0.4026
107   5    0.4026
108   5    0.4025
109   5    0.4021
110   5    0.4016
111   5    0.4009
112   5    0.4002
113   5    0.3995
114   5    0.3989
115   5    0.3984
116   5    0.3981
117   5    0.3981
118   5    0.3982
119   5    0.3986
120   5    0.3992
121   5    0.4000
122   5    0.4008
123   5    0.4017
124   5    0.4025
125   5    0.4033
126   5    0.4039
127   5    0.4044
128   5    0.4046
  1   6    0.4043
  2   6    0.4040
  3   6    0.4035
  4   6    0.4028
  5   6    0.4021
  6   6    0.4014
  7   6    0.4007
  8   6    0.4001
  9   6    0.3997
 10   6    0.3995
 11   6    0.3996
 12   6    0.3999
 13   6    0.4004
 14   6    0.4011
 15   6    0.4019
 16   6    0.4028
 17   6    0.4037
 18   6    0.4044
 19   6    0.4048
 20   6    0.4050
 21   6    0.4047
 22   6    0.4041
 23   6    0.4031
 24   6    0.4018
 25   6    0.4001
 26   6    0.3983
 27   6    0.3965
 28   6    0.3947
 29   6    0.3931
 30   6    0.3918
 31   6    0.3909
 32   6    0.3904
 33   6    0.3904
 34   6    0.3907
 35   6    0.3915
 36   6    0.3926
 37   6    0.3939
 38   6    0.3953
 39   6    0.3968
 40   6    0.3982
 41   6    0.3994
 42   6    0.4005
 43   6    0.4013
 44   6    0.4019
 45   6    0.4023
 46   6    0.4025
 47   6    0.4027
 48   6    0.4028
 49   6    0.4029
 50   6    0.4031
 51   6    0.4033
 52   6    0.4035
 53   6    0.4038
 54   6    0.4041
 55   6    0.4044
 56   6    0.4046
 57   6    0.4046
 58   6    0.4044
 59   6    0.4041
 60   6    0.4035
 61   6    0.4027
 62   6    0.4018
 63   6    0.4007
 64   6    0.3996
 65   6    0.3984
 66   6    0.3972
 67   6    0.3961
 68   6    0.3952
 69   6    0.3944
 70   6    0.3938
 71   6    0.3934
 72   6    0.3932
 73   6    0.3931
 74   6    0.3933
 75   6    0.3937
 76   6    0.3941
 77   6    0.3947
 78   6    0.3954
 79   6    0.3962
 80   6    0.3970
 81   6    0.3977
 82   6    0.3984
 83   6    0.3990
 84   6    0.3996
 85   6    0.3999
 86   6    0.4001
 87   6    0.4001
 88   6    0.4000
 89   6    0.3997
 90   6    0.3993
 91   6    0.3989
 92   6    0.3984
 93   6    0.3979
 94   6    0.3976
 95   6    0.3974
 96   6    0.3974
 97   6    0.3975
 98   6    0.3978
 99   6    0.3984
100   6    0.3990
101   6    0.3998
102   6    0.4005
103   6    0.4012
104   6    0.4018
105   6    0.4022
106   6    0.4024
107   6    0.4024
108   6    0.4022
109   6    0.4018
110   6    0.4012
111   6    0.4005
112   6    0.3998
113   6    0.3991
114   6    0.3985
115   6    0.3981
116   6    0.3979
117   6    0.3979
118   6    0.3982
119   6    0.3987
120   6    0.3994
121   6    0.4002
122   6    0.4010
123   6    0.4019
124   6    0.4027
125   6    0.4034
126   6    0.4040
127   6    0.4043
128   6    0.4044
  1   7    0.4039
  2   7    0.4034
  3   7    0.4028
  4   7    0.4021
  5   7    0.4013
  6   7    0.4006
  7   7    0.4000
  8   7    0.3995
  9   7    0.3992
 10   7    0.3991
 11   7    0.3993
 12   7    0.3998
 13   7    0.4005
 14   7    0.4013
 15   7    0.4022
 16   7    0.4031
 17   7    0.4039
 18   7    0.4046
 19   7    0.4049
 20   7    0.4048
 21   7    0.4044
 22   7    0.4035
 23   7    0.4023
 24   7    0.4007
 25   7    0.3989
 26   7    0.3969
 27   7    0.3950
 28   7    0.3932
 29   7    0.3917
 30   7    0.3905
 31   7    0.3898
 32   7    0.3895
 33   7    0.3897
 34   7    0.3903
 35   7    0.3914
 36   7    0.3927
 37   7    0.3942
 38   7    0.3958
 39   7    0.3974
 40   7    0.3988
 41   7    0.4001
 42   7    0.4011
 43   7    0.4019
 44   7    0.4024
 45   7    0.4027
 46   7    0.4028
 47   7    0.4029
 48   7    0.4029
 49   7    0.4030
 50   7    0.4031
 51   7    0.4033
 52   7    0.4036
 53   7    0.4039
 54   7    0.4042
 55   7    0.4046
 56   7    0.4048
 57   7    0.4048
 58   7    0.4047
 59   7    0.4044
 60   7    0.4038
 61   7    0.4030
 62   7    0.4020
 63   7    0.4009
 64   7    0.3997
 65   7    0.3984
 66   7    0.3972
 67   7    0.3961
 68   7    0.3951
 69   7    0.3943
 70   7    0.3937
 71   7    0.3932
 72   7    0.3930
 73   7    0.3930
 74   7    0.3932
 75   7    0.3936
 76   7    0.3941
 77   7    0.3947
 78   7    0.3954
 79   7    0.3962
 80   7    0.3969
 81   7    0.3977
 82   7    0.3984
 83   7    0.3990
 84   7    0.3994
 85   7    0.3997
 86   7    0.3999
 87   7    0.3999
 88   7    0.3997
 89   7    0.3994
 90   7    0.3990
 91   7    0.3985
 92   7    0.3981
 93   7    0.3977
 94   7    0.3974
 95   7    0.3973
 96   7    0.3973
 97   7    0.3976
 98   7    0.3980
 99   7    0.3985
100   7    0.3992
101   7    0.3999
102   7    0.4007
103   7    0.4013
104   7    0.4018
105   7    0.4022
106   7    0.4023
107   7    0.4022
108   7    0.4019
109   7    0.4013
110   7    0.4007
111   7    0.4000
112   7    0.3992
113   7    0.3986
114   7    0.3981
115   7    0.3977
116   7    0.3976
117   7    0.3977
118   7    0.3981
119   7    0.3987
120   7    0.3994
121   7    0.4002
122   7    0.4011
123   7    0.4020
124   7    0.4028
125   7    0.4035
126   7    0.4039
127   7    0.4041
128   7    0.4041
  1   8    0.4033
  2   8    0.4028
  3   8    0.4021
  4   8    0.4013
  5   8    0.4005
  6   8    0.3997
  7   8    0.3991
  8   8    0.3987
  9   8    0.3985
 10   8    0.3986
 11   8    0.3989
 12   8    0.3995
 13   8    0.4003
 14   8    0.4013
 15   8    0.4023
 16   8    0.4032
 17   8    0.4040
 18   8    0.4046
 19   8    0.4048
 20   8    0.4046
 21   8    0.4040
 22   8    0.4029
 23   8    0.4015
 24   8    0.3997
 25   8    0.3978
 26   8    0.3958
 27   8    0.3938
 28   8    0.3921
 29   8    0.3906
 30   8    0.3896
 31   8    0.3890
 32   8    0.3889
 33   8    0.3894
 34   8    0.3903
 35   8    0.3915
 36   8    0.3931
 37   8    0.3948
 38   8    0.3965
 39   8    0.3981
 40   8    0.3996
 41   8    0.4008
 42   8    0.4018
 43   8    0.4024
 44   8    0.4028
 45   8    0.4030
 46   8    0.4030
 47   8    0.4029
 48   8    0.4028
 49   8    0.4028
 50   8    0.4029
 51   8    0.4031
 52   8    0.4034
 53   8    0.4037
 54   8    0.4041
 55   8    0.4045
 56   8    0.4048
 57   8    0.4049
 58   8    0.4048
 59   8    0.4045
 60   8    0.4040
 61   8    0.4032
 62   8    0.4022
 63   8    0.4011
 64   8    0.3998
 65   8    0.3985
 66   8    0.3973
 67   8    0.3961
 68   8    0.3951
 69   8    0.3943
 70   8    0.3937
 71   8    0.3933
 72   8    0.3931
 73   8    0.3931
 74   8    0.3934
 75   8    0.3938
 76   8    0.3943
 77   8    0.3950
 78   8    0.3957
 79   8    0.3965
 80   8    0.3972
 81   8    0.3979
 82   8    0.3986
 83   8    0.3991
 84   8    0.3995
 85   8    0.3997
 86   8    0.3998
 87   8    0.3997
 88   8    0.3995
 89   8    0.3992
 90   8    0.3988
 91   8    0.3983
 92   8    0.3979
 93   8    0.3976
 94   8    0.3974
 95   8    0.3973
 96   8    0.3974
 97   8    0.3977
 98   8    0.3982
 99   8    0.3988
100   8    0.3995
101   8    0.4002
102   8    0.4009
103   8    0.4015
104   8    0.4019
105   8    0.4022
106   8    0.4022
107   8    0.4019
108   8    0.4015
109   8    0.4009
110   8    0.4001
111   8    0.3994
112   8    0.3986
113   8    0.3980
114   8    0.3975
115   8    0.3972
116   8    0.3972
117   8    0.3974
118   8    0.3978
119   8    0.3985
120   8    0.3993
121   8    0.4002
122   8    0.4011
123   8    0.4020
124   8    0.4028
125   8    0.4034
126   8    0.4037
127   8    0.4038
128   8    0.4037
  1   9    0.4027
  2   9    0.4020
  3   9    0.4012
  4   9    0.4004
  5   9    0.3995
  6   9    0.3987
  7   9    0.3981
  8   9    0.3978
  9   9    0.3976
 10   9    0.3978
 11   9    0.3983
 12   9    0.3990
 13   9    0.3999
 14   9    0.4010
 15   9    0.4021
 16   9    0.4031
 17   9    0.4039
 18   9    0.4044
 19   9    0.4046
 20   9    0.4043
 21   9    0.4036
 22   9    0.4024
 23   9    0.4008
 24   9    0.3990
 25   9    0.3970
 26   9    0.3949
 27   9    0.3930
 28   9    0.3912
 29   9    0.3899
 30   9    0.3890
 31   9    0.3886
 32   9    0.3888
 33   9    0.3894
 34   9    0.3906
 35   9    0.3920
 36   9    0.3937
 37   9    0.3956
 38   9    0.3974
 39   9    0.3991
 40   9    0.4005
 41   9    0.4017
 42   9    0.4025
 43   9    0.4030
 44   9    0.4032
 45   9    0.4032
 46   9    0.4030
 47   9    0.4028
 48   9    0.4026
 49   9    0.4025
 50   9    0.4025
 51   9    0.4026
 52   9    0.4029
 53   9    0.4033
 54   9    0.4038
 55   9    0.4042
 56   9    0.4046
 57   9    0.4048
 58   9    0.4048
 59   9    0.4045
 60   9    0.4040
 61   9    0.4033
 62   9    0.4023
 63   9    0.4012
 64   9    0.3999
 65   9    0.3986
 66   9    0.3974
 67   9    0.3962
 68   9    0.3952
 69   9    0.3944
 70   9    0.3938
 71   9    0.3934
 72   9    0.3933
 73   9    0.3934
 74   9    0.3937
 75   9    0.3942
 76   9    0.3948
 77   9    0.3955
 78   9    0.3963
 79   9    0.3970
 80   9    0.3978
 81   9    0.3985
 82   9    0.3990
 83   9    0.3995
 84   9    0.3998
 85   9    0.3999
 86   9    0.3999
 87   9    0.3998
 88   9    0.3995
 89   9    0.3991
 90   9    0.3987
 91   9    0.3982
 92   9    0.3979
 93   9    0.3976
 94   9    0.3974
 95   9    0.3975
 96   9    0.3977
 97   9    0.3981
 98   9    0.3986
 99   9    0.3992
100   9    0.3999
101   9    0.4006
102   9    0.4013
103   9    0.4018
104   9    0.4021
105   9    0.4022
106   9    0.4020
107   9    0.4017
108   9    0.4011
109   9    0.4004
110   9    0.3995
111   9    0.3987
112   9    0.3979
113   9    0.3973
114   9    0.3968
115   9    0.3966
116   9    0.3966
117   9    0.3969
118   9    0.3975
119   9    0.3982
120   9    0.3991
121   9    0.4001
122   9    0.4010
123   9    0.4019
124   9    0.4026
125   9    0.4031
126   9    0.4034
127   9    0.4034
128   9    0.4032
  1  10    0.4020
  2  10    0.4013
  3  10    0.4004
  4  10    0.3994
  5  10    0.3985
  6  10    0.3977
  7  10    0.3971
  8  10    0.3968
  9  10    0.3967
 10  10    0.3970
 11  10    0.3975
 12  10    0.3984
 13  10    0.3994
 14  10    0.4005
 15  10    0.4017
 16  10    0.4028
 17  10    0.4036
 18  10    0.4042
 19  10    0.4043
 20  10    0.4040
 21  10    0.4032
 22  10    0.4020
 23  10    0.4004
 24  10    0.3985
 25  10    0.3964
 26  10    0.3944
 27  10    0.3925
 28  10    0.3909
 29  10    0.3896
 30  10    0.3889
 31  10    0.3887
 32  10    0.3891
 33  10    0.3899
 34  10    0.3912
 35  10    0.3928
 36  10    0.3947
 37  10    0.3966
 38  10    0.3985
 39  10    0.4001
 40  10    0.4015
 41  10    0.4026
 42  10    0.4032
 43  10    0.4035
 44  10    0.4035
 45  10    0.4033
 46  10    0.4029
 47  10    0.4025
 48  10    0.4022
 49  10    0.4019
 50  10    0.4019
 51  10    0.4020
 52  10    0.4023
 53  10    0.4027
 54  10    0.4032
 55  10    0.4037
 56  10    0.4042
 57  10    0.4045
 58  10    0.4046
 59  10    0.4044
 60  10    0.4040
 61  10    0.4033
 62  10    0.4023
 63  10    0.4012
 64  10    0.4000
 65  10    0.3987
 66  10    0.3975
 67  10    0.3964
 68  10    0.3954
 69  10    0.3946
 70  10    0.3941
 71  10    0.3938
 72  10    0.3937
 73  10    0.3939
 74  10    0.3943
 75  10    0.3948
 76  10    0.3955
 77  10    0.3963
 78  10    0.3971
 79  10    0.3978
 80  10    0.3986
 81  10    0.3992
 82  10    0.3997
 83  10    0.4001
 84  10    0.4003
 85  10    0.4003
 86  10    0.4002
 87  10    0.4000
 88  10    0.3996
 89  10    0.3991
 90  10    0.3987
 91  10    0.3983
 92  10    0.3979
 93  10    0.3977
 94  10    0.3976
 95  10    0.3977
 96  10    0.3980
 97  10    0.3985
 98  10    0.3991
 99  10    0.3997
100  10    0.4005
101  10    0.4011
102  10    0.4017
103  10    0.4021
104  10    0.4023
105  10    0.4022
106  10    0.4019
107  10    0.4014
108  10    0.4007
109  10    0.3998
110  10    0.3989
111  10    0.3980
112  10    0.3971
113  10    0.3965
114  10    0.3961
115  10    0.3959
116  10    0.3960
117  10    0.3964
118  10    0.3970
119  10    0.3978
120  10    0.3988
121  10    0.3998
122  10    0.4008
123  10    0.4016
124  10    0.4023
125  10    0.4028
126  10    0.4030
127  10    0.4030
128  10    0.4026
  1  11    0.4014
  2  11    0.4005
  3  11    0.3995
  4  11    0.3985
  5  11    0.3976
  6  11    0.3968
  7  11    0.3961
  8  11    0.3958
  9  11    0.3958
 10  11    0.3961
 11  11    0.3967
 12  11    0.3976
 13  11    0.3987
 14  11    0.4000
 15  11    0.4012
 16  11    0.4024
 17  11    0.4033
 18  11    0.4039
 19  11    0.4040
 20  11    0.4037
 21  11    0.4030
 22  11    0.4017
 23  11    0.4001
 24  11    0.3983
 25  11    0.3963
 26  11    0.3943
 27  11    0.3925
 28  11    0.3910
 29  11    0.3899
 30  11    0.3893
 31  11    0.3892
 32  11    0.3897
 33  11    0.3908
 34  11    0.3922
 35  11    0.3940
 36  11    0.3959
 37  11    0.3978
 38  11    0.3997
 39  11    0.4013
 40  11    0.4026
 41  11    0.4034
 42  11    0.4039
 43  11    0.4040
 44  11    0.4038
 45  11    0.4033
 46  11    0.4027
 47  11    0.4021
 48  11    0.4016
 49  11    0.4013
 50  11    0.4011
 51  11    0.4012
 52  11    0.4015
 53  11    0.4020
 54  11    0.4025
 55  11    0.4031
 56  11    0.4037
 57  11    0.4041
 58  11    0.4043
 59  11    0.4042
 60  11    0.4038
 61  11    0.4032
 62  11    0.4023
 63  11    0.4013
 64  11    0.4001
 65  11    0.3989
 66  11    0.3977
 67  11    0.3966
 68  11    0.3956
 69  11    0.3949
 70  11    0.3945
 71  11    0.3942
 72  11    0.3943
 73  11    0.3946
 74  11    0.3950
 75  11    0.3957
 76  11    0.3964
 77  11    0.3973
 78  11    0.3981
 79  11    0.3989
 80  11    0.3996
 81  11    0.4002
 82  11    0.4006
 83  11    0.4009
 84  11    0.4010
 85  11    0.4009
 86  11    0.4007
 87  11    0.4003
 88  11    0.3998
 89  11    0.3993
 90  11    0.3988
 91  11    0.3984
 92  11    0.3980
 93  11    0.3978
 94  11    0.3978
 95  11    0.3980
 96  11    0.3984
 97  11    0.3989
 98  11    0.3996
 99  11    0.4003
100  11    0.4010
101  11    0.4017
102  11    0.4022
103  11    0.4025
104  11    0.4025
105  11    0.4023
106  11    0.4019
107  11    0.4012
108  11    0.4003
109  11    0.3993
110  11    0.3982
111  11    0.3972
112  11    0.3963
113  11    0.3957
114  11    0.3952
115  11    0.3951
116  11    0.3953
117  11    0.3957
118  11    0.3964
119  11    0.3973
120  11    0.3983
121  11    0.3994
122  11    0.4004
123  11    0.4013
124  11    0.4020
125  11    0.4024
126  11    0.4026
127  11    0.4024
128  11    0.4020
  1  12    0.4007
  2  12    0.3998
  3  12    0.3988
  4  12    0.3977
  5  12    0.3967
  6  12    0.3959
  7  12    0.3952
  8  12    0.3949
  9  12    0.3949
 10  12    0.3953
 11  12    0.3959
 12  12    0.3969
 13  12    0.3981
 14  12    0.3994
 15  12    0.4007
 16  12    0.4019
 17  12    0.4029
 18  12    0.4035
 19  12    0.4038
 20  12    0.4035
 21  12    0.4028
 22  12    0.4017
 23  12    0.4001
 24  12    0.3984
 25  12    0.3964
 26  12    0.3946
 27  12    0.3929
 28  12    0.3915
 29  12    0.3905
 30  12    0.3901
 31  12    0.3902
 32  12    0.3908
 33  12    0.3920
 34  12    0.3935
 35  12    0.3953
 36  12    0.3973
 37  12    0.3992
 38  12    0.4010
 39  12    0.4025
 40  12    0.4036
 41  12    0.4043
 42  12    0.4045
 43  12    0.4044
 44  12    0.4039
 45  12    0.4032
 46  12    0.4024
 47  12    0.4016
 48  12    0.4010
 49  12    0.4005
 50  12    0.4003
 51  12    0.4003
 52  12    0.4006
 53  12    0.4011
 54  12    0.4017
 55  12    0.4024
 56  12    0.4031
 57  12    0.4036
 58  12    0.4039
 59  12    0.4039
 60  12    0.4036
 61  12    0.4031
 62  12    0.4023
 63  12    0.4013
 64  12    0.4002
 65  12    0.3990
 66  12    0.3978
 67  12    0.3968
 68  12    0.3959
 69  12    0.3953
 70  12    0.3949
 71  12    0.3948
 72  12    0.3949
 73  12    0.3953
 74  12    0.3959
 75  12    0.3967
 76  12    0.3975
 77  12    0.3984
 78  12    0.3993
 79  12    0.4001
 80  12    0.4008
 81  12    0.4013
 82  12    0.4017
 83  12    0.4019
 84  12    0.4018
 85  12    0.4016
 86  12    0.4012
 87  12    0.4007
 88  12    0.4002
 89  12    0.3996
 90  12    0.3990
 91  12    0.3985
 92  12    0.3982
 93  12    0.3981
 94  12    0.3981
 95  12    0.3984
 96  12    0.3989
 97  12    0.3995
 98  12    0.4002
 99  12    0.4009
100  12    0.4017
101  12    0.4023
102  12    0.4027
103  12    0.4029
104  12    0.4028
105  12    0.4025
106  12    0.4018
107  12    0.4009
108  12    0.3999
109  12    0.3987
110  12    0.3976
111  12    0.3965
112  12    0.3956
113  12    0.3949
114  12    0.3944
115  12    0.3943
116  12    0.3945
117  12    0.3950
118  12    0.3958
119  12    0.3968
120  12    0.3978
121  12    0.3989
122  12    0.4000
123  12    0.4009
124  12    0.4016
125  12    0.4020
126  12    0.4021
127  12    0.4019
128  12    0.4014
  1  13    0.4001
  2  13    0.3992
  3  13    0.3981
  4  13    0.3970
  5  13    0.3960
  6  13    0.3951
  7  13    0.3945
  8  13    0.3941
  9  13    0.3941
 10  13    0.3945
 11  13    0.3952
 12  13    0.3962
 13  13    0.3974
 14  13    0.3988
 15  13    0.4001
 16  13    0.4014
 17  13    0.4025
 18  13    0.4032
 19  13    0.4035
 20  13    0.4034
 21  13    0.4028
 22  13    0.4018
 23  13    0.4004
 24  13    0.3987
 25  13    0.3970
 26  13    0.3952
 27  13    0.3937
 28  13    0.3924
 29  13    0.3916
 30  13    0.3913
 31  13    0.3915
 32  13    0.3923
 33  13    0.3935
 34  13    0.3951
 35  13    0.3969
 36  13    0.3988
 37  13    0.4007
 38  13    0.4023
 39  13    0.4037
 40  13    0.4046
 41  13    0.4051
 42  13    0.4051
 43  13    0.4047
 44  13    0.4040
 45  13    0.4030
 46  13    0.4020
 47  13    0.4011
 48  13    0.4002
 49  13    0.3996
 50  13    0.3993
 51  13    0.3994
 52  13    0.3997
 53  13    0.4002
 54  13    0.4009
 55  13    0.4017
 56  13    0.4024
 57  13    0.4030
 58  13    0.4034
 59  13    0.4036
 60  13    0.4034
 61  13    0.4029
 62  13    0.4022
 63  13    0.4013
 64  13    0.4002
 65  13    0.3991
 66  13    0.3980
 67  13    0.3971
 68  13    0.3963
 69  13    0.3957
 70  13    0.3954
 71  13    0.3954
 72  13    0.3957
 73  13    0.3962
 74  13    0.3969
 75  13    0.3977
 76  13    0.3987
 77  13    0.3996
 78  13    0.4006
 79  13    0.4014
 80  13    0.4021
 81  13    0.4026
 82  13    0.4029
 83  13    0.4029
 84  13    0.4028
 85  13    0.4024
 86  13    0.4019
 87  13    0.4013
 88  13    0.4006
 89  13    0.3999
 90  13    0.3993
 91  13    0.3988
 92  13    0.3984
 93  13    0.3983
 94  13    0.3984
 95  13    0.3988
 96  13    0.3993
 97  13    0.4000
 98  13    0.4008
 99  13    0.4015
100  13    0.4023
101  13    0.4029
102  13    0.4032
103  13    0.4033
104  13    0.4031
105  13    0.4026
106  13    0.4018
107  13    0.4008
108  13    0.3996
109  13    0.3983
110  13    0.3970
111  13    0.3958
112  13    0.3948
113  13    0.3941
114  13    0.3937
115  13    0.3936
116  13    0.3938
117  13    0.3944
118  13    0.3952
119  13    0.3962
120  13    0.3973
121  13    0.3984
122  13    0.3995
123  13    0.4004
124  13    0.4011
125  13    0.4015
126  13    0.4016