variables =  "IG"  "JG"  "PHI"
 ZONE I=         128 J=          128
  1   1    0.9662
  2   1    0.9660
  3   1    0.9626
  4   1    0.9547
  5   1    0.9397
  6   1    0.9129
  7   1    0.8693
  8   1    0.8078
  9   1    0.7335
 10   1    0.6565
 11   1    0.5927
 12   1    0.5577
 13   1    0.5624
 14   1    0.6097
 15   1    0.6920
 16   1    0.7893
 17   1    0.8775
 18   1    0.9359
 19   1    0.9632
 20   1    0.9741
 21   1    0.9786
 22   1    0.9803
 23   1    0.9799
 24   1    0.9762
 25   1    0.9625
 26   1    0.9203
 27   1    0.8227
 28   1    0.6759
 29   1    0.5092
 30   1    0.3587
 31   1    0.2449
 32   1    0.1704
 33   1    0.1263
 34   1    0.1024
 35   1    0.0904
 36   1    0.0845
 37   1    0.0815
 38   1    0.0798
 39   1    0.0787
 40   1    0.0778
 41   1    0.0771
 42   1    0.0765
 43   1    0.0764
 44   1    0.0769
 45   1    0.0785
 46   1    0.0820
 47   1    0.0885
 48   1    0.0995
 49   1    0.1164
 50   1    0.1404
 51   1    0.1711
 52   1    0.2068
 53   1    0.2442
 54   1    0.2787
 55   1    0.3055
 56   1    0.3202
 57   1    0.3204
 58   1    0.3060
 59   1    0.2796
 60   1    0.2458
 61   1    0.2100
 62   1    0.1773
 63   1    0.1511
 64   1    0.1339
 65   1    0.1270
 66   1    0.1320
 67   1    0.1517
 68   1    0.1898
 69   1    0.2501
 70   1    0.3344
 71   1    0.4382
 72   1    0.5501
 73   1    0.6573
 74   1    0.7472
 75   1    0.8136
 76   1    0.8575
 77   1    0.8822
 78   1    0.8916
 79   1    0.8876
 80   1    0.8696
 81   1    0.8345
 82   1    0.7789
 83   1    0.7004
 84   1    0.6013
 85   1    0.4912
 86   1    0.3821
 87   1    0.2859
 88   1    0.2109
 89   1    0.1579
 90   1    0.1239
 91   1    0.1044
 92   1    0.0950
 93   1    0.0927
 94   1    0.0968
 95   1    0.1091
 96   1    0.1349
 97   1    0.1818
 98   1    0.2585
 99   1    0.3718
100   1    0.5161
101   1    0.6716
102   1    0.8076
103   1    0.9015
104   1    0.9485
105   1    0.9664
106   1    0.9718
107   1    0.9699
108   1    0.9594
109   1    0.9302
110   1    0.8631
111   1    0.7508
112   1    0.6068
113   1    0.4594
114   1    0.3340
115   1    0.2452
116   1    0.1941
117   1    0.1760
118   1    0.1875
119   1    0.2295
120   1    0.3046
121   1    0.4125
122   1    0.5427
123   1    0.6772
124   1    0.7934
125   1    0.8777
126   1    0.9275
127   1    0.9516
128   1    0.9622
  1   2    0.9240
  2   2    0.9243
  3   2    0.9155
  4   2    0.8962
  5   2    0.8636
  6   2    0.8161
  7   2    0.7540
  8   2    0.6805
  9   2    0.6034
 10   2    0.5350
 11   2    0.4877
 12   2    0.4726
 13   2    0.4973
 14   2    0.5636
 15   2    0.6641
 16   2    0.7776
 17   2    0.8771
 18   2    0.9401
 19   2    0.9674
 20   2    0.9773
 21   2    0.9810
 22   2    0.9825
 23   2    0.9826
 24   2    0.9804
 25   2    0.9710
 26   2    0.9383
 27   2    0.8507
 28   2    0.7055
 29   2    0.5334
 30   2    0.3746
 31   2    0.2529
 32   2    0.1730
 33   2    0.1257
 34   2    0.1002
 35   2    0.0874
 36   2    0.0810
 37   2    0.0776
 38   2    0.0757
 39   2    0.0745
 40   2    0.0737
 41   2    0.0731
 42   2    0.0730
 43   2    0.0735
 44   2    0.0751
 45   2    0.0786
 46   2    0.0852
 47   2    0.0970
 48   2    0.1165
 49   2    0.1460
 50   2    0.1862
 51   2    0.2364
 52   2    0.2935
 53   2    0.3520
 54   2    0.4045
 55   2    0.4437
 56   2    0.4644
 57   2    0.4638
 58   2    0.4416
 59   2    0.4007
 60   2    0.3470
 61   2    0.2886
 62   2    0.2339
 63   2    0.1888
 64   2    0.1561
 65   2    0.1366
 66   2    0.1303
 67   2    0.1375
 68   2    0.1595
 69   2    0.1985
 70   2    0.2560
 71   2    0.3314
 72   2    0.4195
 73   2    0.5105
 74   2    0.5953
 75   2    0.6660
 76   2    0.7180
 77   2    0.7500
 78   2    0.7629
 79   2    0.7574
 80   2    0.7332
 81   2    0.6895
 82   2    0.6264
 83   2    0.5471
 84   2    0.4579
 85   2    0.3668
 86   2    0.2835
 87   2    0.2152
 88   2    0.1641
 89   2    0.1290
 90   2    0.1072
 91   2    0.0952
 92   2    0.0898
 93   2    0.0890
 94   2    0.0928
 95   2    0.1030
 96   2    0.1237
 97   2    0.1614
 98   2    0.2234
 99   2    0.3159
100   2    0.4385
101   2    0.5773
102   2    0.7115
103   2    0.8178
104   2    0.8875
105   2    0.9229
106   2    0.9352
107   2    0.9308
108   2    0.9079
109   2    0.8566
110   2    0.7701
111   2    0.6509
112   2    0.5153
113   2    0.3863
114   2    0.2815
115   2    0.2093
116   2    0.1676
117   2    0.1517
118   2    0.1587
119   2    0.1888
120   2    0.2445
121   2    0.3280
122   2    0.4357
123   2    0.5555
124   2    0.6724
125   2    0.7705
126   2    0.8421
127   2    0.8882
128   2    0.9133
  1   3    0.8194
  2   3    0.8203
  3   3    0.8057
  4   3    0.7758
  5   3    0.7308
  6   3    0.6716
  7   3    0.6021
  8   3    0.5292
  9   3    0.4611
 10   3    0.4071
 11   3    0.3761
 12   3    0.3763
 13   3    0.4139
 14   3    0.4910
 15   3    0.6017
 16   3    0.7288
 17   3    0.8438
 18   3    0.9236
 19   3    0.9614
 20   3    0.9754
 21   3    0.9806
 22   3    0.9825
 23   3    0.9828
 24   3    0.9808
 25   3    0.9718
 26   3    0.9400
 27   3    0.8533
 28   3    0.7080
 29   3    0.5348
 30   3    0.3747
 31   3    0.2520
 32   3    0.1715
 33   3    0.1238
 34   3    0.0982
 35   3    0.0853
 36   3    0.0788
 37   3    0.0754
 38   3    0.0734
 39   3    0.0721
 40   3    0.0713
 41   3    0.0709
 42   3    0.0712
 43   3    0.0724
 44   3    0.0754
 45   3    0.0815
 46   3    0.0931
 47   3    0.1133
 48   3    0.1457
 49   3    0.1928
 50   3    0.2550
 51   3    0.3306
 52   3    0.4130
 53   3    0.4928
 54   3    0.5607
 55   3    0.6096
 56   3    0.6344
 57   3    0.6327
 58   3    0.6039
 59   3    0.5500
 60   3    0.4766
 61   3    0.3930
 62   3    0.3106
 63   3    0.2402
 64   3    0.1873
 65   3    0.1523
 66   3    0.1336
 67   3    0.1291
 68   3    0.1378
 69   3    0.1597
 70   3    0.1953
 71   3    0.2445
 72   3    0.3053
 73   3    0.3730
 74   3    0.4405
 75   3    0.5007
 76   3    0.5482
 77   3    0.5796
 78   3    0.5927
 79   3    0.5871
 80   3    0.5630
 81   3    0.5215
 82   3    0.4656
 83   3    0.3997
 84   3    0.3302
 85   3    0.2643
 86   3    0.2076
 87   3    0.1628
 88   3    0.1303
 89   3    0.1087
 90   3    0.0957
 91   3    0.0888
 92   3    0.0858
 93   3    0.0859
 94   3    0.0891
 95   3    0.0969
 96   3    0.1125
 97   3    0.1407
 98   3    0.1874
 99   3    0.2576
100   3    0.3535
101   3    0.4682
102   3    0.5867
103   3    0.6925
104   3    0.7715
105   3    0.8196
106   3    0.8390
107   3    0.8319
108   3    0.7976
109   3    0.7340
110   3    0.6415
111   3    0.5293
112   3    0.4134
113   3    0.3093
114   3    0.2287
115   3    0.1742
116   3    0.1424
117   3    0.1297
118   3    0.1334
119   3    0.1536
120   3    0.1924
121   3    0.2519
122   3    0.3326
123   3    0.4293
124   3    0.5311
125   3    0.6268
126   3    0.7067
127   3    0.7649
128   3    0.8016
  1   4    0.6603
  2   4    0.6614
  3   4    0.6444
  4   4    0.6110
  5   4    0.5636
  6   4    0.5063
  7   4    0.4440
  8   4    0.3831
  9   4    0.3305
 10   4    0.2928
 11   4    0.2760
 12   4    0.2856
 13   4    0.3275
 14   4    0.4056
 15   4    0.5170
 16   4    0.6496
 17   4    0.7792
 18   4    0.8811
 19   4    0.9410
 20   4    0.9667
 21   4    0.9766
 22   4    0.9802
 23   4    0.9807
 24   4    0.9778
 25   4    0.9659
 26   4    0.9269
 27   4    0.8316
 28   4    0.6838
 29   4    0.5137
 30   4    0.3592
 31   4    0.2421
 32   4    0.1655
 33   4    0.1202
 34   4    0.0959
 35   4    0.0836
 36   4    0.0773
 37   4    0.0739
 38   4    0.0719
 39   4    0.0706
 40   4    0.0698
 41   4    0.0697
 42   4    0.0705
 43   4    0.0729
 44   4    0.0781
 45   4    0.0886
 46   4    0.1080
 47   4    0.1408
 48   4    0.1910
 49   4    0.2608
 50   4    0.3498
 51   4    0.4516
 52   4    0.5549
 53   4    0.6488
 54   4    0.7230
 55   4    0.7723
 56   4    0.7958
 57   4    0.7935
 58   4    0.7640
 59   4    0.7053
 60   4    0.6186
 61   4    0.5131
 62   4    0.4034
 63   4    0.3042
 64   4    0.2268
 65   4    0.1735
 66   4    0.1413
 67   4    0.1260
 68   4    0.1239
 69   4    0.1330
 70   4    0.1523
 71   4    0.1814
 72   4    0.2190
 73   4    0.2627
 74   4    0.3088
 75   4    0.3524
 76   4    0.3886
 77   4    0.4133
 78   4    0.4241
 79   4    0.4198
 80   4    0.4006
 81   4    0.3685
 82   4    0.3267
 83   4    0.2799
 84   4    0.2331
 85   4    0.1905
 86   4    0.1548
 87   4    0.1274
 88   4    0.1081
 89   4    0.0957
 90   4    0.0883
 91   4    0.0845
 92   4    0.0830
 93   4    0.0834
 94   4    0.0859
 95   4    0.0915
 96   4    0.1024
 97   4    0.1221
 98   4    0.1548
 99   4    0.2045
100   4    0.2731
101   4    0.3588
102   4    0.4528
103   4    0.5422
104   4    0.6157
105   4    0.6649
106   4    0.6859
107   4    0.6779
108   4    0.6414
109   4    0.5788
110   4    0.4966
111   4    0.4046
112   4    0.3150
113   4    0.2390
114   4    0.1819
115   4    0.1435
116   4    0.1211
117   4    0.1118
118   4    0.1134
119   4    0.1260
120   4    0.1510
121   4    0.1906
122   4    0.2456
123   4    0.3149
124   4    0.3933
125   4    0.4723
126   4    0.5436
127   4    0.6009
128   4    0.6403
  1   5    0.4838
  2   5    0.4845
  3   5    0.4694
  4   5    0.4405
  5   5    0.4008
  6   5    0.3548
  7   5    0.3074
  8   5    0.2639
  9   5    0.2289
 10   5    0.2060
 11   5    0.1991
 12   5    0.2123
 13   5    0.2511
 14   5    0.3209
 15   5    0.4232
 16   5    0.5501
 17   5    0.6854
 18   5    0.8050
 19   5    0.8921
 20   5    0.9411
 21   5    0.9628
 22   5    0.9711
 23   5    0.9726
 24   5    0.9671
 25   5    0.9468
 26   5    0.8913
 27   5    0.7832
 28   5    0.6339
 29   5    0.4728
 30   5    0.3307
 31   5    0.2251
 32   5    0.1563
 33   5    0.1156
 34   5    0.0936
 35   5    0.0823
 36   5    0.0764
 37   5    0.0731
 38   5    0.0711
 39   5    0.0698
 40   5    0.0693
 41   5    0.0696
 42   5    0.0714
 43   5    0.0757
 44   5    0.0849
 45   5    0.1026
 46   5    0.1338
 47   5    0.1836
 48   5    0.2559
 49   5    0.3520
 50   5    0.4664
 51   5    0.5869
 52   5    0.6997
 53   5    0.7910
 54   5    0.8554
 55   5    0.8938
 56   5    0.9103
 57   5    0.9084
 58   5    0.8855
 59   5    0.8344
 60   5    0.7493
 61   5    0.6328
 62   5    0.5009
 63   5    0.3749
 64   5    0.2716
 65   5    0.1985
 66   5    0.1522
 67   5    0.1268
 68   5    0.1162
 69   5    0.1162
 70   5    0.1244
 71   5    0.1395
 72   5    0.1606
 73   5    0.1862
 74   5    0.2140
 75   5    0.2412
 76   5    0.2646
 77   5    0.2812
 78   5    0.2889
 79   5    0.2864
 80   5    0.2740
 81   5    0.2532
 82   5    0.2267
 83   5    0.1975
 84   5    0.1687
 85   5    0.1430
 86   5    0.1218
 87   5    0.1060
 88   5    0.0950
 89   5    0.0880
 90   5    0.0839
 91   5    0.0817
 92   5    0.0810
 93   5    0.0814
 94   5    0.0832
 95   5    0.0870
 96   5    0.0942
 97   5    0.1070
 98   5    0.1282
 99   5    0.1609
100   5    0.2064
101   5    0.2640
102   5    0.3299
103   5    0.3961
104   5    0.4532
105   5    0.4930
106   5    0.5104
107   5    0.5035
108   5    0.4732
109   5    0.4233
110   5    0.3606
111   5    0.2941
112   5    0.2327
113   5    0.1821
114   5    0.1444
115   5    0.1194
116   5    0.1049
117   5    0.0986
118   5    0.0991
119   5    0.1062
120   5    0.1212
121   5    0.1455
122   5    0.1802
123   5    0.2250
124   5    0.2777
125   5    0.3341
126   5    0.3882
127   5    0.4339
128   5    0.4666
  1   6    0.3295
  2   6    0.3298
  3   6    0.3186
  4   6    0.2977
  5   6    0.2700
  6   6    0.2390
  7   6    0.2083
  8   6    0.1810
  9   6    0.1600
 10   6    0.1475
 11   6    0.1462
 12   6    0.1592
 13   6    0.1912
 14   6    0.2474
 15   6    0.3322
 16   6    0.4438
 17   6    0.5707
 18   6    0.6966
 19   6    0.8018
 20   6    0.8769
 21   6    0.9206
 22   6    0.9405
 23   6    0.9446
 24   6    0.9332
 25   6    0.8971
 26   6    0.8222
 27   6    0.7063
 28   6    0.5623
 29   6    0.4175
 30   6    0.2941
 31   6    0.2045
 32   6    0.1461
 33   6    0.1113
 34   6    0.0922
 35   6    0.0821
 36   6    0.0767
 37   6    0.0735
 38   6    0.0715
 39   6    0.0704
 40   6    0.0703
 41   6    0.0716
 42   6    0.0753
 43   6    0.0833
 44   6    0.0991
 45   6    0.1277
 46   6    0.1750
 47   6    0.2456
 48   6    0.3428
 49   6    0.4629
 50   6    0.5936
 51   6    0.7191
 52   6    0.8217
 53   6    0.8939
 54   6    0.9351
 55   6    0.9545
 56   6    0.9619
 57   6    0.9610
 58   6    0.9497
 59   6    0.9177
 60   6    0.8475
 61   6    0.7342
 62   6    0.5901
 63   6    0.4429
 64   6    0.3164
 65   6    0.2240
 66   6    0.1644
 67   6    0.1300
 68   6    0.1128
 69   6    0.1067
 70   6    0.1079
 71   6    0.1143
 72   6    0.1248
 73   6    0.1385
 74   6    0.1540
 75   6    0.1697
 76   6    0.1837
 77   6    0.1942
 78   6    0.1996
 79   6    0.1990
 80   6    0.1925
 81   6    0.1809
 82   6    0.1656
 83   6    0.1486
 84   6    0.1317
 85   6    0.1167
 86   6    0.1043
 87   6    0.0950
 88   6    0.0885
 89   6    0.0842
 90   6    0.0816
 91   6    0.0801
 92   6    0.0796
 93   6    0.0799
 94   6    0.0810
 95   6    0.0834
 96   6    0.0879
 97   6    0.0957
 98   6    0.1085
 99   6    0.1283
100   6    0.1563
101   6    0.1920
102   6    0.2333
103   6    0.2758
104   6    0.3137
105   6    0.3411
106   6    0.3532
107   6    0.3482
108   6    0.3269
109   6    0.2929
110   6    0.2518
111   6    0.2096
112   6    0.1713
113   6    0.1401
114   6    0.1172
115   6    0.1021
116   6    0.0934
117   6    0.0895
118   6    0.0895
119   6    0.0932
120   6    0.1015
121   6    0.1152
122   6    0.1353
123   6    0.1620
124   6    0.1941
125   6    0.2293
126   6    0.2641
127   6    0.2948
128   6    0.3174
  1   7    0.2185
  2   7    0.2185
  3   7    0.2114
  4   7    0.1985
  5   7    0.1817
  6   7    0.1631
  7   7    0.1451
  8   7    0.1296
  9   7    0.1182
 10   7    0.1122
 11   7    0.1133
 12   7    0.1239
 13   7    0.1479
 14   7    0.1898
 15   7    0.2540
 16   7    0.3424
 17   7    0.4503
 18   7    0.5657
 19   7    0.6746
 20   7    0.7629
 21   7    0.8241
 22   7    0.8582
 23   7    0.8667
 24   7    0.8490
 25   7    0.8007
 26   7    0.7180
 27   7    0.6048
 28   7    0.4775
 29   7    0.3559
 30   7    0.2562
 31   7    0.1847
 32   7    0.1378
 33   7    0.1095
 34   7    0.0935
 35   7    0.0846
 36   7    0.0795
 37   7    0.0765
 38   7    0.0748
 39   7    0.0742
 40   7    0.0751
 41   7    0.0783
 42   7    0.0857
 43   7    0.1001
 44   7    0.1263
 45   7    0.1700
 46   7    0.2365
 47   7    0.3303
 48   7    0.4499
 49   7    0.5842
 50   7    0.7170
 51   7    0.8280
 52   7    0.9059
 53   7    0.9480
 54   7    0.9667
 55   7    0.9748
 56   7    0.9777
 57   7    0.9775
 58   7    0.9725
 59   7    0.9554
 60   7    0.9070
 61   7    0.8052
 62   7    0.6594
 63   7    0.4983
 64   7    0.3543
 65   7    0.2460
 66   7    0.1754
 67   7    0.1337
 68   7    0.1117
 69   7    0.1018
 70   7    0.0990
 71   7    0.1005
 72   7    0.1051
 73   7    0.1118
 74   7    0.1201
 75   7    0.1291
 76   7    0.1377
 77   7    0.1449
 78   7    0.1496
 79   7    0.1511
 80   7    0.1491
 81   7    0.1438
 82   7    0.1359
 83   7    0.1263
 84   7    0.1163
 85   7    0.1068
 86   7    0.0986
 87   7    0.0920
 88   7    0.0870
 89   7    0.0834
 90   7    0.0810
 91   7    0.0796
 92   7    0.0788
 93   7    0.0787
 94   7    0.0793
 95   7    0.0807
 96   7    0.0833
 97   7    0.0878
 98   7    0.0951
 99   7    0.1063
100   7    0.1220
101   7    0.1424
102   7    0.1663
103   7    0.1909
104   7    0.2131
105   7    0.2292
106   7    0.2364
107   7    0.2332
108   7    0.2204
109   7    0.2003
110   7    0.1762
111   7    0.1517
112   7    0.1297
113   7    0.1120
114   7    0.0992
115   7    0.0907
116   7    0.0858
117   7    0.0834
118   7    0.0832
119   7    0.0851
120   7    0.0894
121   7    0.0966
122   7    0.1073
123   7    0.1218
124   7    0.1397
125   7    0.1598
126   7    0.1799
127   7    0.1979
128   7    0.2114
  1   8    0.1495
  2   8    0.1494
  3   8    0.1454
  4   8    0.1382
  5   8    0.1289
  6   8    0.1188
  7   8    0.1093
  8   8    0.1013
  9   8    0.0958
 10   8    0.0933
 11   8    0.0950
 12   8    0.1026
 13   8    0.1189
 14   8    0.1478
 15   8    0.1930
 16   8    0.2568
 17   8    0.3388
 18   8    0.4329
 19   8    0.5281
 20   8    0.6134
 21   8    0.6792
 22   8    0.7194
 23   8    0.7314
 24   8    0.7137
 25   8    0.6654
 26   8    0.5887
 27   8    0.4929
 28   8    0.3912
 29   8    0.2980
 30   8    0.2238
 31   8    0.1705
 32   8    0.1352
 33   8    0.1134
 34   8    0.1005
 35   8    0.0930
 36   8    0.0884
 37   8    0.0858
 38   8    0.0846
 39   8    0.0852
 40   8    0.0883
 41   8    0.0953
 42   8    0.1091
 43   8    0.1336
 44   8    0.1739
 45   8    0.2355
 46   8    0.3233
 47   8    0.4375
 48   8    0.5695
 49   8    0.7043
 50   8    0.8205
 51   8    0.9041
 52   8    0.9494
 53   8    0.9690
 54   8    0.9771
 55   8    0.9804
 56   8    0.9818
 57   8    0.9818
 58   8    0.9793
 59   8    0.9689
 60   8    0.9340
 61   8    0.8449
 62   8    0.7015
 63   8    0.5335
 64   8    0.3791
 65   8    0.2606
 66   8    0.1827
 67   8    0.1364
 68   8    0.1114
 69   8    0.0994
 70   8    0.0945
 71   8    0.0937
 72   8    0.0954
 73   8    0.0989
 74   8    0.1038
 75   8    0.1098
 76   8    0.1165
 77   8    0.1231
 78   8    0.1290
 79   8    0.1333
 80   8    0.1354
 81   8    0.1349
 82   8    0.1317
 83   8    0.1261
 84   8    0.1190
 85   8    0.1112
 86   8    0.1034
 87   8    0.0964
 88   8    0.0905
 89   8    0.0859
 90   8    0.0825
 91   8    0.0802
 92   8    0.0788
 93   8    0.0780
 94   8    0.0780
 95   8    0.0786
 96   8    0.0800
 97   8    0.0825
 98   8    0.0864
 99   8    0.0924
100   8    0.1007
101   8    0.1114
102   8    0.1240
103   8    0.1371
104   8    0.1490
105   8    0.1576
106   8    0.1614
107   8    0.1596
108   8    0.1526
109   8    0.1416
110   8    0.1287
111   8    0.1156
112   8    0.1040
113   8    0.0948
114   8    0.0880
115   8    0.0835
116   8    0.0808
117   8    0.0794
118   8    0.0792
119   8    0.0802
120   8    0.0823
121   8    0.0859
122   8    0.0913
123   8    0.0986
124   8    0.1078
125   8    0.1182
126   8    0.1288
127   8    0.1384
128   8    0.1457
  1   9    0.1113
  2   9    0.1112
  3   9    0.1092
  4   9    0.1056
  5   9    0.1010
  6   9    0.0960
  7   9    0.0914
  8   9    0.0876
  9   9    0.0851
 10   9    0.0842
 11   9    0.0857
 12   9    0.0907
 13   9    0.1010
 14   9    0.1195
 15   9    0.1490
 16   9    0.1918
 17   9    0.2480
 18   9    0.3156
 19   9    0.3887
 20   9    0.4581
 21   9    0.5150
 22   9    0.5525
 23   9    0.5659
 24   9    0.5533
 25   9    0.5157
 26   9    0.4577
 27   9    0.3876
 28   9    0.3159
 29   9    0.2526
 30   9    0.2030
 31   9    0.1673
 32   9    0.1435
 33   9    0.1284
 34   9    0.1192
 35   9    0.1136
 36   9    0.1103
 37   9    0.1086
 38   9    0.1089
 39   9    0.1118
 40   9    0.1189
 41   9    0.1323
 42   9    0.1556
 43   9    0.1930
 44   9    0.2496
 45   9    0.3302
 46   9    0.4360
 47   9    0.5604
 48   9    0.6913
 49   9    0.8083
 50   9    0.8959
 51   9    0.9457
 52   9    0.9675
 53   9    0.9763
 54   9    0.9800
 55   9    0.9817
 56   9    0.9826
 57   9    0.9826
 58   9    0.9805
 59   9    0.9717
 60   9    0.9408
 61   9    0.8563
 62   9    0.7141
 63   9    0.5441
 64   9    0.3865
 65   9    0.2648
 66   9    0.1846
 67   9    0.1368
 68   9    0.1109
 69   9    0.0981
 70   9    0.0925
 71   9    0.0909
 72   9    0.0916
 73   9    0.0942
 74   9    0.0985
 75   9    0.1045
 76   9    0.1123
 77   9    0.1213
 78   9    0.1309
 79   9    0.1400
 80   9    0.1473
 81   9    0.1516
 82   9    0.1522
 83   9    0.1488
 84   9    0.1419
 85   9    0.1325
 86   9    0.1219
 87   9    0.1112
 88   9    0.1016
 89   9    0.0935
 90   9    0.0873
 91   9    0.0829
 92   9    0.0799
 93   9    0.0781
 94   9    0.0772
 95   9    0.0771
 96   9    0.0776
 97   9    0.0789
 98   9    0.0809
 99   9    0.0840
100   9    0.0882
101   9    0.0935
102   9    0.0997
103   9    0.1062
104   9    0.1120
105   9    0.1162
106   9    0.1181
107   9    0.1171
108   9    0.1136
109   9    0.1081
110   9    0.1017
111   9    0.0952
112   9    0.0895
113   9    0.0848
114   9    0.0814
115   9    0.0790
116   9    0.0775
117   9    0.0768
118   9    0.0766
119   9    0.0771
120   9    0.0782
121   9    0.0801
122   9    0.0828
123   9    0.0864
124   9    0.0908
125   9    0.0959
126   9    0.1011
127   9    0.1058
128   9    0.1094
  1  10    0.0926
  2  10    0.0926
  3  10    0.0917
  4  10    0.0900
  5  10    0.0878
  6  10    0.0855
  7  10    0.0834
  8  10    0.0816
  9  10    0.0805
 10  10    0.0803
 11  10    0.0814
 12  10    0.0846
 13  10    0.0908
 14  10    0.1019
 15  10    0.1198
 16  10    0.1463
 17  10    0.1821
 18  10    0.2260
 19  10    0.2749
 20  10    0.3239
 21  10    0.3664
 22  10    0.3963
 23  10    0.4094
 24  10    0.4039
 25  10    0.3813
 26  10    0.3456
 27  10    0.3034
 28  10    0.2619
 29  10    0.2264
 30  10    0.1995
 31  10    0.1810
 32  10    0.1695
 33  10    0.1627
 34  10    0.1590
 35  10    0.1569
 36  10    0.1561
 37  10    0.1567
 38  10    0.1597
 39  10    0.1665
 40  10    0.1793
 41  10    0.2011
 42  10    0.2355
 43  10    0.2870
 44  10    0.3597
 45  10    0.4545
 46  10    0.5671
 47  10    0.6879
 48  10    0.7995
 49  10    0.8869
 50  10    0.9400
 51  10    0.9644
 52  10    0.9745
 53  10    0.9786
 54  10    0.9805
 55  10    0.9816
 56  10    0.9820
 57  10    0.9816
 58  10    0.9790
 59  10    0.9682
 60  10    0.9323
 61  10    0.8415
 62  10    0.6971
 63  10    0.5290
 64  10    0.3752
 65  10    0.2576
 66  10    0.1803
 67  10    0.1344
 68  10    0.1095
 69  10    0.0972
 70  10    0.0918
 71  10    0.0903
 72  10    0.0914
 73  10    0.0947
 74  10    0.1006
 75  10    0.1095
 76  10    0.1217
 77  10    0.1370
 78  10    0.1542
 79  10    0.1717
 80  10    0.1870
 81  10    0.1981
 82  10    0.2029
 83  10    0.2009
 84  10    0.1922
 85  10    0.1783
 86  10    0.1610
 87  10    0.1426
 88  10    0.1252
 89  10    0.1101
 90  10    0.0981
 91  10    0.0893
 92  10    0.0833
 93  10    0.0795
 94  10    0.0773
 95  10    0.0762
 96  10    0.0760
 97  10    0.0764
 98  10    0.0774
 99  10    0.0790
100  10    0.0812
101  10    0.0838
102  10    0.0868
103  10    0.0899
104  10    0.0927
105  10    0.0947
106  10    0.0955
107  10    0.0950
108  10    0.0934
109  10    0.0908
110  10    0.0877
111  10    0.0846
112  10    0.0818
113  10    0.0794
114  10    0.0776
115  10    0.0763
116  10    0.0755
117  10    0.0751
118  10    0.0750
119  10    0.0753
120  10    0.0760
121  10    0.0770
122  10    0.0785
123  10    0.0803
124  10    0.0826
125  10    0.0851
126  10    0.0876
127  10    0.0899
128  10    0.0917
  1  11    0.0845
  2  11    0.0845
  3  11    0.0841
  4  11    0.0833
  5  11    0.0823
  6  11    0.0812
  7  11    0.0802
  8  11    0.0794
  9  11    0.0789
 10  11    0.0790
 11  11    0.0797
 12  11    0.0817
 13  11    0.0853
 14  11    0.0917
 15  11    0.1019
 16  11    0.1173
 17  11    0.1383
 18  11    0.1648
 19  11    0.1948
 20  11    0.2256
 21  11    0.2535
 22  11    0.2747
 23  11    0.2864
 24  11    0.2876
 25  11    0.2795
 26  11    0.2651
 27  11    0.2485
 28  11    0.2338
 29  11    0.2236
 30  11    0.2189
 31  11    0.2189
 32  11    0.2221
 33  11    0.2265
 34  11    0.2309
 35  11    0.2347
 36  11    0.2383
 37  11    0.2426
 38  11    0.2495
 39  11    0.2613
 40  11    0.2808
 41  11    0.3114
 42  11    0.3567
 43  11    0.4195
 44  11    0.5005
 45  11    0.5973
 46  11    0.7024
 47  11    0.8017
 48  11    0.8827
 49  11    0.9350
 50  11    0.9608
 51  11    0.9719
 52  11    0.9765
 53  11    0.9787
 54  11    0.9798
 55  11    0.9803
 56  11    0.9802
 57  11    0.9787
 58  11    0.9729
 59  11    0.9549
 60  11    0.9039
 61  11    0.7991
 62  11    0.6512
 63  11    0.4899
 64  11    0.3469
 65  11    0.2401
 66  11    0.1705
 67  11    0.1293
 68  11    0.1071
 69  11    0.0963
 70  11    0.0918
 71  11    0.0913
 72  11    0.0937
 73  11    0.0994
 74  11    0.1093
 75  11    0.1244
 76  11    0.1454
 77  11    0.1719
 78  11    0.2022
 79  11    0.2332
 80  11    0.2613
 81  11    0.2822
 82  11    0.2931
 83  11    0.2922
 84  11    0.2799
 85  11    0.2582
 86  11    0.2301
 87  11    0.1993
 88  11    0.1689
 89  11    0.1418
 90  11    0.1195
 91  11    0.1027
 92  11    0.0910
 93  11    0.0835
 94  11    0.0789
 95  11    0.0764
 96  11    0.0752
 97  11    0.0749
 98  11    0.0753
 99  11    0.0761
100  11    0.0773
101  11    0.0788
102  11    0.0804
103  11    0.0820
104  11    0.0835
105  11    0.0845
106  11    0.0850
107  11    0.0849
108  11    0.0841
109  11    0.0828
110  11    0.0813
111  11    0.0797
112  11    0.0783
113  11    0.0770
114  11    0.0759
115  11    0.0752
116  11    0.0747
117  11    0.0745
118  11    0.0745
119  11    0.0747
120  11    0.0752
121  11    0.0759
122  11    0.0769
123  11    0.0780
124  11    0.0793
125  11    0.0806
126  11    0.0820
127  11    0.0831
128  11    0.0840
  1  12    0.0820
  2  12    0.0819
  3  12    0.0816
  4  12    0.0811
  5  12    0.0805
  6  12    0.0799
  7  12    0.0794
  8  12    0.0790
  9  12    0.0788
 10  12    0.0789
 11  12    0.0794
 12  12    0.0805
 13  12    0.0826
 14  12    0.0862
 15  12    0.0919
 16  12    0.1002
 17  12    0.1118
 18  12    0.1266
 19  12    0.1439
 20  12    0.1621
 21  12    0.1794
 22  12    0.1940
 23  12    0.2046
 24  12    0.2112
 25  12    0.2149
 26  12    0.2180
 27  12    0.2233
 28  12    0.2328
 29  12    0.2476
 30  12    0.2669
 31  12    0.2888
 32  12    0.3106
 33  12    0.3298
 34  12    0.3454
 35  12    0.3572
 36  12    0.3665
 37  12    0.3753
 38  12    0.3864
 39  12    0.4028
 40  12    0.4276
 41  12    0.4637
 42  12    0.5134
 43  12    0.5778
 44  12    0.6550
 45  12    0.7388
 46  12    0.8195
 47  12    0.8874
 48  12    0.9334
 49  12    0.9578
 50  12    0.9690
 51  12    0.9738
 52  12    0.9760
 53  12    0.9770
 54  12    0.9772
 55  12    0.9766
 56  12    0.9746
 57  12    0.9692
 58  12    0.9552
 59  12    0.9201
 60  12    0.8448
 61  12    0.7266
 62  12    0.5794
 63  12    0.4317
 64  12    0.3062
 65  12    0.2154
 66  12    0.1568
 67  12    0.1224
 68  12    0.1040
 69  12    0.0953
 70  12    0.0924
 71  12    0.0935
 72  12    0.0984
 73  12    0.1084
 74  12    0.1252
 75  12    0.1508
 76  12    0.1859
 77  12    0.2298
 78  12    0.2798
 79  12    0.3309
 80  12    0.3763
 81  12    0.4101
 82  12    0.4282
 83  12    0.4287
 84  12    0.4120
 85  12    0.3806
 86  12    0.3381
 87  12    0.2898
 88  12    0.2409
 89  12    0.1960
 90  12    0.1579
 91  12    0.1280
 92  12    0.1065
 93  12    0.0921
 94  12    0.0833
 95  12    0.0782
 96  12    0.0756
 97  12    0.0744
 98  12    0.0743
 99  12    0.0747
100  12    0.0755
101  12    0.0766
102  12    0.0778
103  12    0.0791
104  12    0.0802
105  12    0.0810
106  12    0.0816
107  12    0.0817
108  12    0.0814
109  12    0.0809
110  12    0.0800
111  12    0.0791
112  12    0.0782
113  12    0.0774
114  12    0.0767
115  12    0.0761
116  12    0.0758
117  12    0.0757
118  12    0.0758
119  12    0.0761
120  12    0.0766
121  12    0.0772
122  12    0.0779
123  12    0.0787
124  12    0.0795
125  12    0.0803
126  12    0.0810
127  12    0.0816
128  12    0.0819
  1  13    0.0834
  2  13    0.0827
  3  13    0.0820
  4  13    0.0814
  5  13    0.0808
  6  13    0.0802
  7  13    0.0798
  8  13    0.0795
  9  13    0.0793
 10  13    0.0793
 11  13    0.0796
 12  13    0.0803
 13  13    0.0815
 14  13    0.0835
 15  13    0.0866
 16  13    0.0910
 17  13    0.0971
 18  13    0.1050
 19  13    0.1143
 20  13    0.1247
 21  13    0.1354
 22  13    0.1459
 23  13    0.1563
 24  13    0.1674
 25  13    0.1809
 26  13    0.1992
 27  13    0.2246
 28  13    0.2585
 29  13    0.3005
 30  13    0.3477
 31  13    0.3951
 32  13    0.4381
 33  13    0.4735
 34  13    0.5004
 35  13    0.5197
 36  13    0.5339
 37  13    0.5459
 38  13    0.5591
 39  13    0.5769
 40  13    0.6020
 41  13    0.6369
 42  13    0.6820
 43  13    0.7360
 44  13    0.7948
 45  13    0.8528
 46  13    0.9023
 47  13    0.9368
 48  13    0.9564
 49  13    0.9659
 50  13    0.9701
 51  13    0.9715
 52  13    0.9714
 53  13    0.9704
 54  13    0.9681
 55  13    0.9640
 56  13    0.9560
 57  13    0.9399
 58  13    0.9068
 59  13    0.8453
 60  13    0.7501
 61  13    0.6256
 62  13    0.4892
 63  13    0.3620
 64  13    0.2595
 65  13    0.1874
 66  13    0.1414
 67  13    0.1146
 68  13    0.1006
 69  13    0.0945
 70  13    0.0935
 71  13    0.0969
 72  13    0.1057
 73  13    0.1222
 74  13    0.1495
 75  13    0.1901
 76  13    0.2453
 77  13    0.3136
 78  13    0.3893
 79  13    0.4631
 80  13    0.5260
 81  13    0.5713
 82  13    0.5955
 83  13    0.5974
 84  13    0.5777
 85  13    0.5387
 86  13    0.4839
 87  13    0.4180
 88  13    0.3476
 89  13    0.2795
 90  13    0.2198
 91  13    0.1713
 92  13    0.1347
 93  13    0.1093
 94  13    0.0931
 95  13    0.0835
 96  13    0.0783
 97  13    0.0758
 98  13    0.0749
 99  13    0.0751
100  13    0.0759
101  13    0.0772
102  13    0.0786
103  13    0.0802
104  13    0.0817
105  13    0.0830
106  13    0.0841
107  13    0.0847
108  13    0.0849
109  13    0.0848
110  13    0.0844
111  13    0.0838
112  13    0.0831
113  13    0.0824
114  13    0.0818
115  13    0.0814
116  13    0.0812
117  13    0.0811
118  13    0.0813
119  13    0.0817
120  13    0.0822
121  13    0.0828
122  13    0.0834
123  13    0.0840
124  13    0.0844
125  13    0.0846
126  13    0.0846